<?xml version='1.0' encoding='utf-8'?>
<VTKFile type="UnstructuredGrid" version="0.1" byte_order="LittleEndian"><UnstructuredGrid><Piece NumberOfPoints="231" NumberOfCells="200"><Points><DataArray type="Float32" Name="Points" NumberOfComponents="3" format="ascii">
2.950073 -11.000000 0.802100 3.020250 -11.000000 0.805932 3.090343 -11.000000 0.807376 3.160372 -11.000000 0.806987 3.230352 -11.000000 0.805203 3.300295 -11.000000 0.802347 3.370208 -11.000000 0.798620 3.440093 -11.000000 0.794108 3.509949 -11.000000 0.788778 3.579772 -11.000000 0.782480 3.649552 -11.000000 0.774945 2.661318 -9.900000 0.719971 2.743867 -9.900000 0.725076 2.826337 -9.900000 0.727369 2.908747 -9.900000 0.727504 2.991112 -9.900000 0.725998 3.073442 -9.900000 0.723229 3.155743 -9.900000 0.719436 3.238019 -9.900000 0.714718 3.320269 -9.900000 0.709038 3.402486 -9.900000 0.702218 3.484663 -9.900000 0.693943 2.372558 -8.800000 0.637843 2.467463 -8.800000 0.644398 2.562301 -8.800000 0.647718 2.657088 -8.800000 0.648556 2.751836 -8.800000 0.647506 2.846555 -8.800000 0.645003 2.941249 -8.800000 0.641321 3.035922 -8.800000 0.636577 3.130572 -8.800000 0.630724 3.225195 -8.800000 0.623561 3.319783 -8.800000 0.614723 2.083793 -7.700000 0.555715 2.191036 -7.700000 0.563898 2.298231 -7.700000 0.568424 2.405388 -7.700000 0.570143 2.512517 -7.700000 0.569727 2.619624 -7.700000 0.567668 2.726714 -7.700000 0.564276 2.833787 -7.700000 0.559683 2.940844 -7.700000 0.553837 3.047881 -7.700000 0.546508 3.154892 -7.700000 0.537286 1.792020 -6.600000 0.473241 1.912077 -6.600000 0.482197 2.032111 -6.600000 0.487464 2.152128 -6.600000 0.489901 2.272132 -6.600000 0.490186 2.392126 -6.600000 0.488814 2.512112 -6.600000 0.486099 2.632090 -6.600000 0.482172 2.752061 -6.600000 0.476982 2.872022 -6.600000 0.470297 2.991972 -6.600000 0.461704 1.494997 -5.500000 0.390009 1.628739 -5.500000 0.397654 1.762484 -5.500000 0.402444 1.896231 -5.500000 0.405044 2.029980 -5.500000 0.405978 2.163731 -5.500000 0.405629 2.297482 -5.500000 0.404241 2.431235 -5.500000 0.401914 2.564989 -5.500000 0.398611 2.698743 -5.500000 0.394150 2.832500 -5.500000 0.388211 1.197987 -4.400000 0.306549 1.345444 -4.400000 0.312403 1.492915 -4.400000 0.316494 1.640397 -4.400000 0.319232 1.787888 -4.400000 0.320942 1.935386 -4.400000 0.321859 2.082888 -4.400000 0.322135 2.230396 -4.400000 0.321831 2.377909 -4.400000 0.320923 2.525427 -4.400000 0.319301 2.672953 -4.400000 0.316766 0.900994 -3.300000 0.222863 1.062208 -3.300000 0.226445 1.223428 -3.300000 0.229615 1.384654 -3.300000 0.232467 1.545883 -3.300000 0.235079 1.707114 -3.300000 0.237505 1.868348 -3.300000 0.239781 2.029585 -3.300000 0.241921 2.190823 -3.300000 0.243919 2.352064 -3.300000 0.245751 2.513308 -3.300000 0.247368 0.601333 -2.200000 0.146667 0.778280 -2.200000 0.150991 0.955228 -2.200000 0.155316 1.132175 -2.200000 0.159640 1.309122 -2.200000 0.163965 1.486069 -2.200000 0.168289 1.663016 -2.200000 0.172614 1.839963 -2.200000 0.176938 2.016911 -2.200000 0.181263 2.193858 -2.200000 0.185587 2.370805 -2.200000 0.189912 0.300667 -1.100000 0.073333 0.494055 -1.100000 0.079918 0.687443 -1.100000 0.086502 0.880831 -1.100000 0.093086 1.074218 -1.100000 0.099671 1.267606 -1.100000 0.106255 1.460994 -1.100000 0.112839 1.654382 -1.100000 0.119423 1.847770 -1.100000 0.126008 2.041158 -1.100000 0.132592 2.234546 -1.100000 0.139176 0.000000 0.000000 -0.000000 0.209800 0.000000 0.009160 0.419600 0.000000 0.018320 0.629400 0.000000 0.027480 0.839201 0.000000 0.036640 1.049001 0.000000 0.045800 1.258801 0.000000 0.054960 1.468601 0.000000 0.064120 1.678401 0.000000 0.073281 1.888201 0.000000 0.082441 2.098001 0.000000 0.091601 0.300667 1.100000 0.073333 0.494055 1.100000 0.079918 0.687443 1.100000 0.086502 0.880831 1.100000 0.093086 1.074218 1.100000 0.099671 1.267606 1.100000 0.106255 1.460994 1.100000 0.112839 1.654382 1.100000 0.119423 1.847770 1.100000 0.126008 2.041158 1.100000 0.132592 2.234546 1.100000 0.139176 0.601333 2.200000 0.146667 0.778280 2.200000 0.150991 0.955228 2.200000 0.155316 1.132175 2.200000 0.159640 1.309122 2.200000 0.163965 1.486069 2.200000 0.168289 1.663016 2.200000 0.172614 1.839963 2.200000 0.176938 2.016911 2.200000 0.181263 2.193858 2.200000 0.185587 2.370805 2.200000 0.189912 0.900994 3.300000 0.222863 1.062208 3.300000 0.226445 1.223428 3.300000 0.229615 1.384654 3.300000 0.232467 1.545883 3.300000 0.235079 1.707114 3.300000 0.237505 1.868348 3.300000 0.239781 2.029585 3.300000 0.241921 2.190823 3.300000 0.243919 2.352064 3.300000 0.245751 2.513308 3.300000 0.247368 1.197987 4.400000 0.306549 1.345444 4.400000 0.312403 1.492915 4.400000 0.316494 1.640397 4.400000 0.319232 1.787888 4.400000 0.320942 1.935386 4.400000 0.321859 2.082888 4.400000 0.322135 2.230396 4.400000 0.321831 2.377909 4.400000 0.320923 2.525427 4.400000 0.319301 2.672953 4.400000 0.316766 1.494997 5.500000 0.390009 1.628739 5.500000 0.397654 1.762484 5.500000 0.402444 1.896231 5.500000 0.405044 2.029980 5.500000 0.405978 2.163731 5.500000 0.405629 2.297482 5.500000 0.404241 2.431235 5.500000 0.401914 2.564989 5.500000 0.398611 2.698743 5.500000 0.394150 2.832500 5.500000 0.388211 1.792020 6.600000 0.473241 1.912077 6.600000 0.482197 2.032111 6.600000 0.487464 2.152128 6.600000 0.489901 2.272132 6.600000 0.490186 2.392126 6.600000 0.488814 2.512112 6.600000 0.486099 2.632090 6.600000 0.482172 2.752061 6.600000 0.476982 2.872022 6.600000 0.470297 2.991972 6.600000 0.461704 2.083793 7.700000 0.555715 2.191036 7.700000 0.563898 2.298231 7.700000 0.568424 2.405388 7.700000 0.570143 2.512517 7.700000 0.569727 2.619624 7.700000 0.567668 2.726714 7.700000 0.564276 2.833787 7.700000 0.559683 2.940844 7.700000 0.553837 3.047881 7.700000 0.546508 3.154892 7.700000 0.537286 2.372558 8.800000 0.637843 2.467463 8.800000 0.644398 2.562301 8.800000 0.647718 2.657088 8.800000 0.648556 2.751836 8.800000 0.647506 2.846555 8.800000 0.645003 2.941249 8.800000 0.641321 3.035922 8.800000 0.636577 3.130572 8.800000 0.630724 3.225195 8.800000 0.623561 3.319783 8.800000 0.614723 2.661318 9.900000 0.719971 2.743867 9.900000 0.725076 2.826337 9.900000 0.727369 2.908747 9.900000 0.727504 2.991112 9.900000 0.725998 3.073442 9.900000 0.723229 3.155743 9.900000 0.719436 3.238019 9.900000 0.714718 3.320269 9.900000 0.709038 3.402486 9.900000 0.702218 3.484663 9.900000 0.693943 2.950073 11.000000 0.802100 3.020250 11.000000 0.805932 3.090343 11.000000 0.807376 3.160372 11.000000 0.806987 3.230352 11.000000 0.805203 3.300295 11.000000 0.802347 3.370208 11.000000 0.798620 3.440093 11.000000 0.794108 3.509949 11.000000 0.788778 3.579772 11.000000 0.782480 3.649552 11.000000 0.774945
</DataArray></Points><Cells><DataArray type="Int32" Name="connectivity" format="ascii">
0 11 12 1 1 12 13 2 2 13 14 3 3 14 15 4 4 15 16 5 5 16 17 6 6 17 18 7 7 18 19 8 8 19 20 9 9 20 21 10 11 22 23 12 12 23 24 13 13 24 25 14 14 25 26 15 15 26 27 16 16 27 28 17 17 28 29 18 18 29 30 19 19 30 31 20 20 31 32 21 22 33 34 23 23 34 35 24 24 35 36 25 25 36 37 26 26 37 38 27 27 38 39 28 28 39 40 29 29 40 41 30 30 41 42 31 31 42 43 32 33 44 45 34 34 45 46 35 35 46 47 36 36 47 48 37 37 48 49 38 38 49 50 39 39 50 51 40 40 51 52 41 41 52 53 42 42 53 54 43 44 55 56 45 45 56 57 46 46 57 58 47 47 58 59 48 48 59 60 49 49 60 61 50 50 61 62 51 51 62 63 52 52 63 64 53 53 64 65 54 55 66 67 56 56 67 68 57 57 68 69 58 58 69 70 59 59 70 71 60 60 71 72 61 61 72 73 62 62 73 74 63 63 74 75 64 64 75 76 65 66 77 78 67 67 78 79 68 68 79 80 69 69 80 81 70 70 81 82 71 71 82 83 72 72 83 84 73 73 84 85 74 74 85 86 75 75 86 87 76 77 88 89 78 78 89 90 79 79 90 91 80 80 91 92 81 81 92 93 82 82 93 94 83 83 94 95 84 84 95 96 85 85 96 97 86 86 97 98 87 88 99 100 89 89 100 101 90 90 101 102 91 91 102 103 92 92 103 104 93 93 104 105 94 94 105 106 95 95 106 107 96 96 107 108 97 97 108 109 98 99 110 111 100 100 111 112 101 101 112 113 102 102 113 114 103 103 114 115 104 104 115 116 105 105 116 117 106 106 117 118 107 107 118 119 108 108 119 120 109 110 121 122 111 111 122 123 112 112 123 124 113 113 124 125 114 114 125 126 115 115 126 127 116 116 127 128 117 117 128 129 118 118 129 130 119 119 130 131 120 121 132 133 122 122 133 134 123 123 134 135 124 124 135 136 125 125 136 137 126 126 137 138 127 127 138 139 128 128 139 140 129 129 140 141 130 130 141 142 131 132 143 144 133 133 144 145 134 134 145 146 135 135 146 147 136 136 147 148 137 137 148 149 138 138 149 150 139 139 150 151 140 140 151 152 141 141 152 153 142 143 154 155 144 144 155 156 145 145 156 157 146 146 157 158 147 147 158 159 148 148 159 160 149 149 160 161 150 150 161 162 151 151 162 163 152 152 163 164 153 154 165 166 155 155 166 167 156 156 167 168 157 157 168 169 158 158 169 170 159 159 170 171 160 160 171 172 161 161 172 173 162 162 173 174 163 163 174 175 164 165 176 177 166 166 177 178 167 167 178 179 168 168 179 180 169 169 180 181 170 170 181 182 171 171 182 183 172 172 183 184 173 173 184 185 174 174 185 186 175 176 187 188 177 177 188 189 178 178 189 190 179 179 190 191 180 180 191 192 181 181 192 193 182 182 193 194 183 183 194 195 184 184 195 196 185 185 196 197 186 187 198 199 188 188 199 200 189 189 200 201 190 190 201 202 191 191 202 203 192 192 203 204 193 193 204 205 194 194 205 206 195 195 206 207 196 196 207 208 197 198 209 210 199 199 210 211 200 200 211 212 201 201 212 213 202 202 213 214 203 203 214 215 204 204 215 216 205 205 216 217 206 206 217 218 207 207 218 219 208 209 220 221 210 210 221 222 211 211 222 223 212 212 223 224 213 213 224 225 214 214 225 226 215 215 226 227 216 216 227 228 217 217 228 229 218 218 229 230 219
</DataArray><DataArray type="Int32" Name="offsets" format="ascii">
4 8 12 16 20 24 28 32 36 40 44 48 52 56 60 64 68 72 76 80 84 88 92 96 100 104 108 112 116 120 124 128 132 136 140 144 148 152 156 160 164 168 172 176 180 184 188 192 196 200 204 208 212 216 220 224 228 232 236 240 244 248 252 256 260 264 268 272 276 280 284 288 292 296 300 304 308 312 316 320 324 328 332 336 340 344 348 352 356 360 364 368 372 376 380 384 388 392 396 400 404 408 412 416 420 424 428 432 436 440 444 448 452 456 460 464 468 472 476 480 484 488 492 496 500 504 508 512 516 520 524 528 532 536 540 544 548 552 556 560 564 568 572 576 580 584 588 592 596 600 604 608 612 616 620 624 628 632 636 640 644 648 652 656 660 664 668 672 676 680 684 688 692 696 700 704 708 712 716 720 724 728 732 736 740 744 748 752 756 760 764 768 772 776 780 784 788 792 796 800
</DataArray><DataArray type="UInt8" Name="types" format="ascii">
9 9 9 9 9 9 9 9 9 9 9 9 9 9 9 9 9 9 9 9 9 9 9 9 9 9 9 9 9 9 9 9 9 9 9 9 9 9 9 9 9 9 9 9 9 9 9 9 9 9 9 9 9 9 9 9 9 9 9 9 9 9 9 9 9 9 9 9 9 9 9 9 9 9 9 9 9 9 9 9 9 9 9 9 9 9 9 9 9 9 9 9 9 9 9 9 9 9 9 9 9 9 9 9 9 9 9 9 9 9 9 9 9 9 9 9 9 9 9 9 9 9 9 9 9 9 9 9 9 9 9 9 9 9 9 9 9 9 9 9 9 9 9 9 9 9 9 9 9 9 9 9 9 9 9 9 9 9 9 9 9 9 9 9 9 9 9 9 9 9 9 9 9 9 9 9 9 9 9 9 9 9 9 9 9 9 9 9 9 9 9 9 9 9 9 9 9 9 9 9
</DataArray></Cells><CellData><DataArray type="Float32" Name="gamma" format="ascii">
0.079369 0.044850 0.035668 0.030007 0.025637 0.022001 0.018851 0.015953 0.012932 0.008948 0.095502 0.054239 0.043390 0.036735 0.031584 0.027260 0.023459 0.019899 0.016129 0.011130 0.104301 0.059854 0.048161 0.040932 0.035297 0.030540 0.026342 0.022394 0.018189 0.012577 0.110924 0.063678 0.051239 0.043546 0.037549 0.032490 0.028028 0.023834 0.019368 0.013399 0.117683 0.065369 0.051694 0.043477 0.037226 0.032033 0.027491 0.023246 0.018769 0.012892 0.125910 0.065656 0.050093 0.041196 0.034728 0.029507 0.025014 0.020865 0.016580 0.011181 0.134239 0.065106 0.047472 0.037886 0.031250 0.026070 0.021693 0.017707 0.013702 0.008948 0.139495 0.064350 0.045333 0.035308 0.028588 0.023459 0.019179 0.015321 0.011530 0.007263 0.139907 0.063738 0.044495 0.034422 0.027718 0.022630 0.018399 0.014599 0.010891 0.006783 0.134422 0.061722 0.043491 0.033951 0.027556 0.022647 0.018512 0.014750 0.011039 0.006891 0.134440 0.061729 0.043496 0.033954 0.027559 0.022649 0.018513 0.014751 0.011040 0.006892 0.139934 0.063749 0.044503 0.034427 0.027722 0.022633 0.018401 0.014600 0.010892 0.006784 0.139512 0.064358 0.045337 0.035312 0.028591 0.023461 0.019181 0.015322 0.011531 0.007264 0.134238 0.065106 0.047472 0.037886 0.031250 0.026071 0.021694 0.017708 0.013703 0.008948 0.125913 0.065657 0.050095 0.041197 0.034729 0.029508 0.025014 0.020865 0.016580 0.011181 0.117695 0.065375 0.051698 0.043479 0.037228 0.032034 0.027492 0.023247 0.018770 0.012892 0.110928 0.063679 0.051240 0.043546 0.037549 0.032490 0.028028 0.023834 0.019367 0.013399 0.104260 0.059838 0.048151 0.040926 0.035292 0.030537 0.026341 0.022393 0.018189 0.012577 0.095618 0.054288 0.043421 0.036758 0.031601 0.027272 0.023468 0.019906 0.016133 0.011133 0.079284 0.044813 0.035644 0.029990 0.025624 0.021991 0.018844 0.015948 0.012928 0.008945
</DataArray><DataArray type="Float32" Name="induced_velocity" NumberOfComponents="3" format="ascii">
0.990027 0.011538 0.266174 1.004076 -0.000249 0.056840 1.003022 -0.003371 0.016679 1.000709 -0.005717 -0.007783 0.998312 -0.007670 -0.025245 0.996160 -0.009385 -0.038514 0.994265 -0.011012 -0.049407 0.992469 -0.012705 -0.059360 0.990523 -0.014606 -0.069356 0.988234 -0.016743 -0.078856 0.988306 0.012128 0.280736 1.004497 0.000355 0.065757 1.003784 -0.002761 0.025212 1.001586 -0.005056 0.000681 0.999183 -0.006893 -0.016769 0.996947 -0.008409 -0.029981 0.994918 -0.009742 -0.040785 0.992958 -0.011034 -0.050617 0.990826 -0.012411 -0.060438 0.988330 -0.013876 -0.069607 0.987116 0.011452 0.275844 1.004183 0.000565 0.070161 1.003870 -0.002411 0.030295 1.001958 -0.004613 0.005911 0.999759 -0.006362 -0.011509 0.997671 -0.007784 -0.024729 0.995752 -0.009008 -0.035557 0.993880 -0.010170 -0.045422 0.991827 -0.011391 -0.055289 0.989397 -0.012670 -0.064528 0.986907 0.010852 0.264349 1.003422 0.000558 0.069648 1.003364 -0.002329 0.031836 1.001785 -0.004463 0.008681 0.999914 -0.006135 -0.007879 0.998120 -0.007461 -0.020460 0.996467 -0.008562 -0.030777 0.994850 -0.009565 -0.040187 0.993069 -0.010576 -0.049613 0.990944 -0.011589 -0.058463 0.988691 0.010554 0.247196 1.002050 -0.000025 0.061623 1.001944 -0.002733 0.029164 1.000763 -0.004641 0.010091 0.999412 -0.006081 -0.003345 0.998140 -0.007171 -0.013479 0.996983 -0.008021 -0.021749 0.995867 -0.008733 -0.029260 0.994651 -0.009385 -0.036748 0.993211 -0.009954 -0.043667 0.991258 0.009834 0.227803 1.000457 -0.001445 0.048171 1.000287 -0.003620 0.022961 0.999544 -0.004969 0.009698 0.998760 -0.005920 0.000783 0.998051 -0.006599 -0.005765 0.997421 -0.007091 -0.010999 0.996829 -0.007465 -0.015663 0.996204 -0.007764 -0.020205 0.995481 -0.007958 -0.024115 0.993576 0.008973 0.209536 0.999078 -0.002915 0.034853 0.999040 -0.004460 0.016794 0.998729 -0.005204 0.009307 0.998411 -0.005648 0.004908 0.998128 -0.005918 0.001959 0.997880 -0.006076 -0.000216 0.997652 -0.006158 -0.001996 0.997422 -0.006182 -0.003541 0.997165 -0.006118 -0.004358 0.994529 0.006876 0.193928 0.998455 -0.003548 0.028054 0.998679 -0.004383 0.014928 0.998683 -0.004605 0.011204 0.998639 -0.004667 0.009709 0.998579 -0.004659 0.009066 0.998511 -0.004613 0.008850 0.998438 -0.004540 0.008914 0.998356 -0.004443 0.009281 0.998257 -0.004298 0.010418 0.994390 0.005376 0.180611 0.998879 -0.003441 0.028580 0.999205 -0.003958 0.017396 0.999268 -0.003985 0.014699 0.999262 -0.003912 0.013899 0.999227 -0.003811 0.013770 0.999175 -0.003701 0.013965 0.999110 -0.003589 0.014396 0.999033 -0.003472 0.015119 0.998934 -0.003333 0.016561 0.995281 0.003871 0.165214 1.000539 -0.003034 0.031590 1.000813 -0.003051 0.021950 1.000729 -0.002776 0.019795 1.000557 -0.002512 0.019310 1.000359 -0.002296 0.019411 1.000154 -0.002125 0.019795 0.999949 -0.001991 0.020387 0.999745 -0.001885 0.021244 0.999531 -0.001788 0.022766 0.995280 -0.003871 0.165214 1.000539 0.003035 0.031571 1.000813 0.003053 0.021929 1.000729 0.002778 0.019774 1.000557 0.002515 0.019289 1.000359 0.002299 0.019390 1.000154 0.002128 0.019774 0.999949 0.001995 0.020366 0.999745 0.001889 0.021223 0.999531 0.001792 0.022745 0.994389 -0.005377 0.180618 0.998879 0.003443 0.028556 0.999206 0.003960 0.017369 0.999268 0.003987 0.014671 0.999262 0.003914 0.013872 0.999227 0.003813 0.013742 0.999175 0.003703 0.013938 0.999110 0.003591 0.014368 0.999034 0.003474 0.015092 0.998934 0.003335 0.016534 0.994529 -0.006877 0.193937 0.998455 0.003549 0.028041 0.998680 0.004384 0.014914 0.998683 0.004606 0.011189 0.998639 0.004668 0.009695 0.998579 0.004660 0.009051 0.998511 0.004613 0.008835 0.998438 0.004541 0.008899 0.998356 0.004443 0.009266 0.998257 0.004298 0.010403 0.993576 -0.008974 0.209542 0.999077 0.002914 0.034863 0.999040 0.004459 0.016803 0.998729 0.005203 0.009317 0.998411 0.005647 0.004918 0.998128 0.005918 0.001968 0.997880 0.006075 -0.000206 0.997652 0.006157 -0.001986 0.997422 0.006182 -0.003531 0.997165 0.006117 -0.004348 0.991258 -0.009834 0.227808 1.000457 0.001445 0.048170 1.000287 0.003620 0.022960 0.999544 0.004969 0.009697 0.998761 0.005920 0.000782 0.998051 0.006599 -0.005766 0.997421 0.007092 -0.011000 0.996829 0.007465 -0.015664 0.996204 0.007764 -0.020206 0.995481 0.007958 -0.024116 0.988690 -0.010554 0.247203 1.002050 0.000026 0.061608 1.001944 0.002734 0.029148 1.000763 0.004642 0.010075 0.999412 0.006082 -0.003362 0.998140 0.007172 -0.013496 0.996983 0.008022 -0.021765 0.995866 0.008734 -0.029277 0.994651 0.009387 -0.036764 0.993211 0.009956 -0.043683 0.986907 -0.010852 0.264351 1.003422 -0.000558 0.069642 1.003364 0.002330 0.031829 1.001786 0.004463 0.008674 0.999914 0.006135 -0.007886 0.998120 0.007461 -0.020467 0.996467 0.008562 -0.030784 0.994850 0.009565 -0.040195 0.993069 0.010577 -0.049620 0.990944 0.011591 -0.058471 0.987118 -0.011453 0.275839 1.004179 -0.000570 0.070244 1.003868 0.002405 0.030385 1.001957 0.004607 0.006002 0.999759 0.006356 -0.011417 0.997671 0.007778 -0.024637 0.995752 0.009001 -0.035465 0.993881 0.010163 -0.045330 0.991827 0.011383 -0.055197 0.989397 0.012661 -0.064436 0.988299 -0.012131 0.280798 1.004508 -0.000342 0.065548 1.003790 0.002777 0.024983 1.001589 0.005073 0.000447 0.999184 0.006910 -0.017005 0.996946 0.008427 -0.030217 0.994917 0.009759 -0.041022 0.992956 0.011052 -0.050853 0.990824 0.012429 -0.060673 0.988327 0.013894 -0.069840 0.990032 -0.011535 0.266120 1.004068 0.000238 0.057016 1.003016 0.003358 0.016871 1.000707 0.005702 -0.007586 0.998312 0.007655 -0.025047 0.996161 0.009371 -0.038316 0.994267 0.010998 -0.049208 0.992471 0.012691 -0.059162 0.990526 0.014593 -0.069159 0.988238 0.016731 -0.078660
</DataArray><DataArray type="Float32" Name="force" NumberOfComponents="3" format="ascii">
-0.023313 0.000394 0.086697 -0.002803 0.002935 0.049533 -0.000645 0.002702 0.039322 0.000271 0.002443 0.032988 0.000728 0.002179 0.028107 0.000948 0.001924 0.024062 0.001041 0.001682 0.020574 0.001058 0.001447 0.017376 0.001002 0.001190 0.014055 0.000788 0.000834 0.009701 -0.029587 0.000058 0.104155 -0.003925 0.003407 0.059937 -0.001194 0.003176 0.047878 -0.000013 0.002894 0.040427 0.000600 0.002600 0.034663 0.000917 0.002308 0.029843 0.001070 0.002026 0.025625 0.001125 0.001745 0.021691 0.001088 0.001435 0.017542 0.000864 0.001002 0.012073 -0.031745 0.000195 0.113594 -0.004622 0.003672 0.066124 -0.001596 0.003442 0.053151 -0.000251 0.003149 0.045066 0.000464 0.002837 0.038764 0.000849 0.002523 0.033463 0.001049 0.002218 0.028803 0.001136 0.001914 0.024437 0.001122 0.001576 0.019806 0.000905 0.001101 0.013660 -0.032354 0.000546 0.120766 -0.004881 0.003986 0.070295 -0.001785 0.003724 0.056521 -0.000400 0.003398 0.047937 0.000344 0.003050 0.041245 0.000750 0.002701 0.035617 0.000968 0.002361 0.030671 0.001071 0.002024 0.026037 0.001073 0.001653 0.021119 0.000873 0.001145 0.014578 -0.032104 0.001181 0.128352 -0.004431 0.004418 0.072053 -0.001646 0.004000 0.056937 -0.000466 0.003574 0.047810 0.000156 0.003153 0.040871 0.000494 0.002746 0.035119 0.000676 0.002359 0.030102 0.000764 0.001981 0.025425 0.000772 0.001579 0.020503 0.000629 0.001062 0.014063 -0.031655 0.002052 0.137653 -0.003471 0.004726 0.072228 -0.001250 0.003999 0.055070 -0.000422 0.003425 0.045244 -0.000012 0.002932 0.038104 0.000203 0.002493 0.032351 0.000317 0.002094 0.027406 0.000372 0.001718 0.022848 0.000378 0.001333 0.018145 0.000303 0.000869 0.012228 -0.031042 0.002981 0.147068 -0.002480 0.004971 0.071498 -0.000859 0.003907 0.052113 -0.000371 0.003185 0.041571 -0.000154 0.002631 0.034278 -0.000043 0.002171 0.028589 0.000016 0.001770 0.023784 0.000048 0.001406 0.019411 0.000060 0.001050 0.015018 0.000047 0.000654 0.009805 -0.029830 0.002545 0.152888 -0.001969 0.004324 0.070612 -0.000730 0.003168 0.049747 -0.000423 0.002455 0.038748 -0.000296 0.001952 0.031373 -0.000226 0.001563 0.025745 -0.000181 0.001242 0.021048 -0.000146 0.000960 0.016814 -0.000115 0.000696 0.012653 -0.000081 0.000420 0.007971 -0.027850 0.002630 0.153257 -0.001988 0.003979 0.069971 -0.000839 0.002830 0.048860 -0.000548 0.002145 0.037803 -0.000417 0.001676 0.030442 -0.000337 0.001323 0.024855 -0.000279 0.001038 0.020209 -0.000228 0.000793 0.016035 -0.000179 0.000568 0.011962 -0.000122 0.000339 0.007450 -0.024467 0.003139 0.147321 -0.002132 0.003784 0.067878 -0.001041 0.002688 0.047844 -0.000733 0.002041 0.037350 -0.000581 0.001597 0.030313 -0.000480 0.001261 0.024910 -0.000401 0.000987 0.020359 -0.000329 0.000752 0.016219 -0.000257 0.000536 0.012136 -0.000172 0.000318 0.007575 -0.024470 -0.003139 0.147340 -0.002131 -0.003784 0.067886 -0.001040 -0.002688 0.047849 -0.000732 -0.002041 0.037353 -0.000580 -0.001597 0.030315 -0.000480 -0.001261 0.024912 -0.000400 -0.000987 0.020360 -0.000329 -0.000752 0.016220 -0.000257 -0.000536 0.012137 -0.000172 -0.000318 0.007576 -0.027857 -0.002630 0.153287 -0.001987 -0.003980 0.069984 -0.000838 -0.002831 0.048868 -0.000547 -0.002145 0.037809 -0.000416 -0.001677 0.030446 -0.000337 -0.001323 0.024858 -0.000278 -0.001038 0.020211 -0.000228 -0.000793 0.016037 -0.000179 -0.000568 0.011963 -0.000122 -0.000339 0.007451 -0.029835 -0.002545 0.152907 -0.001968 -0.004325 0.070620 -0.000729 -0.003169 0.049753 -0.000423 -0.002455 0.038752 -0.000295 -0.001952 0.031376 -0.000226 -0.001563 0.025747 -0.000181 -0.001242 0.021050 -0.000146 -0.000960 0.016815 -0.000114 -0.000696 0.012654 -0.000081 -0.000420 0.007972 -0.031043 -0.002980 0.147067 -0.002480 -0.004971 0.071498 -0.000859 -0.003907 0.052113 -0.000371 -0.003185 0.041572 -0.000154 -0.002631 0.034279 -0.000044 -0.002170 0.028589 0.000016 -0.001770 0.023784 0.000047 -0.001406 0.019411 0.000060 -0.001050 0.015018 0.000047 -0.000654 0.009806 -0.031656 -0.002052 0.137657 -0.003471 -0.004726 0.072230 -0.001250 -0.003999 0.055072 -0.000422 -0.003425 0.045245 -0.000012 -0.002932 0.038105 0.000203 -0.002493 0.032352 0.000317 -0.002094 0.027407 0.000372 -0.001718 0.022848 0.000378 -0.001333 0.018145 0.000303 -0.000869 0.012228 -0.032108 -0.001181 0.128365 -0.004430 -0.004419 0.072059 -0.001646 -0.004001 0.056940 -0.000465 -0.003575 0.047813 0.000157 -0.003153 0.040873 0.000495 -0.002746 0.035121 0.000676 -0.002359 0.030103 0.000765 -0.001981 0.025426 0.000773 -0.001579 0.020504 0.000629 -0.001062 0.014063 -0.032355 -0.000546 0.120770 -0.004881 -0.003986 0.070297 -0.001784 -0.003724 0.056522 -0.000400 -0.003398 0.047938 0.000344 -0.003050 0.041246 0.000751 -0.002701 0.035617 0.000968 -0.002361 0.030671 0.001071 -0.002024 0.026037 0.001073 -0.001653 0.021119 0.000874 -0.001145 0.014578 -0.031732 -0.000195 0.113550 -0.004626 -0.003670 0.066106 -0.001600 -0.003440 0.053141 -0.000255 -0.003148 0.045060 0.000461 -0.002836 0.038759 0.000846 -0.002522 0.033460 0.001046 -0.002217 0.028801 0.001134 -0.001913 0.024436 0.001120 -0.001575 0.019805 0.000904 -0.001101 0.013660 -0.029629 -0.000057 0.104280 -0.003916 -0.003413 0.059991 -0.001184 -0.003181 0.047913 -0.000003 -0.002898 0.040451 0.000608 -0.002603 0.034681 0.000924 -0.002311 0.029856 0.001077 -0.002028 0.025635 0.001131 -0.001747 0.021698 0.001092 -0.001436 0.017547 0.000867 -0.001002 0.012076 -0.023284 -0.000394 0.086605 -0.002810 -0.002930 0.049492 -0.000652 -0.002699 0.039296 0.000264 -0.002440 0.032969 0.000722 -0.002177 0.028092 0.000943 -0.001922 0.024051 0.001036 -0.001681 0.020565 0.001054 -0.001446 0.017370 0.000999 -0.001190 0.014051 0.000786 -0.000834 0.009698
</DataArray><DataArray type="Float32" Name="area" format="ascii">
0.083999 0.083910 0.083842 0.083790 0.083750 0.083718 0.083689 0.083658 0.083622 0.083576 0.097599 0.097520 0.097459 0.097412 0.097377 0.097348 0.097322 0.097295 0.097262 0.097221 0.111181 0.111118 0.111069 0.111033 0.111004 0.110981 0.110960 0.110939 0.110913 0.110880 0.125015 0.124976 0.124946 0.124923 0.124906 0.124891 0.124878 0.124865 0.124849 0.124829 0.139589 0.139579 0.139570 0.139564 0.139559 0.139555 0.139552 0.139548 0.139544 0.139538 0.154659 0.154669 0.154676 0.154682 0.154686 0.154690 0.154693 0.154696 0.154700 0.154705 0.169769 0.169780 0.169789 0.169796 0.169801 0.169805 0.169809 0.169813 0.169818 0.169824 0.185989 0.185992 0.185995 0.185997 0.185998 0.186000 0.186001 0.186002 0.186003 0.186005 0.203684 0.203684 0.203684 0.203684 0.203684 0.203684 0.203684 0.203684 0.203684 0.203684 0.221753 0.221753 0.221753 0.221753 0.221753 0.221753 0.221753 0.221753 0.221753 0.221753 0.221753 0.221753 0.221753 0.221753 0.221753 0.221753 0.221753 0.221753 0.221753 0.221753 0.203684 0.203684 0.203684 0.203684 0.203684 0.203684 0.203684 0.203684 0.203684 0.203684 0.185989 0.185992 0.185995 0.185997 0.185998 0.186000 0.186001 0.186002 0.186003 0.186005 0.169769 0.169780 0.169789 0.169796 0.169801 0.169805 0.169809 0.169813 0.169818 0.169824 0.154659 0.154669 0.154676 0.154682 0.154686 0.154690 0.154693 0.154696 0.154700 0.154705 0.139589 0.139579 0.139570 0.139564 0.139559 0.139555 0.139552 0.139548 0.139544 0.139538 0.125015 0.124976 0.124946 0.124923 0.124906 0.124891 0.124878 0.124865 0.124849 0.124829 0.111181 0.111118 0.111069 0.111033 0.111004 0.110981 0.110960 0.110939 0.110913 0.110880 0.097599 0.097520 0.097459 0.097412 0.097377 0.097348 0.097322 0.097295 0.097262 0.097221 0.083999 0.083910 0.083842 0.083790 0.083750 0.083718 0.083689 0.083658 0.083622 0.083576
</DataArray><DataArray type="Float32" Name="decamber_angle" format="ascii">
0.006161 0.006161 0.006161 0.006161 0.006161 0.006161 0.006161 0.006161 0.006161 0.006161 0.008018 0.008018 0.008018 0.008018 0.008018 0.008018 0.008018 0.008018 0.008018 0.008018 0.006228 0.006228 0.006228 0.006228 0.006228 0.006228 0.006228 0.006228 0.006228 0.006228 0.002580 0.002580 0.002580 0.002580 0.002580 0.002580 0.002580 0.002580 0.002580 0.002580 -0.000463 -0.000463 -0.000463 -0.000463 -0.000463 -0.000463 -0.000463 -0.000463 -0.000463 -0.000463 -0.004033 -0.004033 -0.004033 -0.004033 -0.004033 -0.004033 -0.004033 -0.004033 -0.004033 -0.004033 -0.007568 -0.007568 -0.007568 -0.007568 -0.007568 -0.007568 -0.007568 -0.007568 -0.007568 -0.007568 -0.010992 -0.010992 -0.010992 -0.010992 -0.010992 -0.010992 -0.010992 -0.010992 -0.010992 -0.010992 -0.016132 -0.016132 -0.016132 -0.016132 -0.016132 -0.016132 -0.016132 -0.016132 -0.016132 -0.016132 -0.020875 -0.020875 -0.020875 -0.020875 -0.020875 -0.020875 -0.020875 -0.020875 -0.020875 -0.020875 -0.020897 -0.020897 -0.020897 -0.020897 -0.020897 -0.020897 -0.020897 -0.020897 -0.020897 -0.020897 -0.016160 -0.016160 -0.016160 -0.016160 -0.016160 -0.016160 -0.016160 -0.016160 -0.016160 -0.016160 -0.011007 -0.011007 -0.011007 -0.011007 -0.011007 -0.011007 -0.011007 -0.011007 -0.011007 -0.011007 -0.007558 -0.007558 -0.007558 -0.007558 -0.007558 -0.007558 -0.007558 -0.007558 -0.007558 -0.007558 -0.004034 -0.004034 -0.004034 -0.004034 -0.004034 -0.004034 -0.004034 -0.004034 -0.004034 -0.004034 -0.000480 -0.000480 -0.000480 -0.000480 -0.000480 -0.000480 -0.000480 -0.000480 -0.000480 -0.000480 0.002572 0.002572 0.002572 0.002572 0.002572 0.002572 0.002572 0.002572 0.002572 0.002572 0.006322 0.006322 0.006322 0.006322 0.006322 0.006322 0.006322 0.006322 0.006322 0.006322 0.007777 0.007777 0.007777 0.007777 0.007777 0.007777 0.007777 0.007777 0.007777 0.007777 0.006363 0.006363 0.006363 0.006363 0.006363 0.006363 0.006363 0.006363 0.006363 0.006363
</DataArray></CellData></Piece><FieldData><DataArray type="String" Name="solver_type" format="ascii">
NLVLM
</DataArray></FieldData></UnstructuredGrid></VTKFile>