<?xml version='1.0' encoding='utf-8'?>
<VTKFile type="UnstructuredGrid" version="0.1" byte_order="LittleEndian"><UnstructuredGrid><Piece NumberOfPoints="1071" NumberOfCells="1000"><Points><DataArray type="Float32" Name="Points" NumberOfComponents="3" format="ascii">
2.949997 -11.000000 0.799915 2.985169 -11.000000 0.804227 3.020252 -11.000000 0.805982 3.055304 -11.000000 0.806865 3.090336 -11.000000 0.807183 3.125355 -11.000000 0.807124 3.160365 -11.000000 0.806775 3.195364 -11.000000 0.806154 3.230355 -11.000000 0.805270 3.265336 -11.000000 0.804130 3.300308 -11.000000 0.802719 3.335271 -11.000000 0.801034 3.370224 -11.000000 0.799079 3.405168 -11.000000 0.796857 3.440103 -11.000000 0.794387 3.475030 -11.000000 0.791705 3.509951 -11.000000 0.788815 3.544864 -11.000000 0.785726 3.579772 -11.000000 0.782461 3.614673 -11.000000 0.779033 3.649568 -11.000000 0.775412 2.834497 -10.560000 0.766909 2.872143 -10.560000 0.771635 2.909701 -10.560000 0.773622 2.947229 -10.560000 0.774675 2.984737 -10.560000 0.775123 3.022233 -10.560000 0.775169 3.059719 -10.560000 0.774903 3.097195 -10.560000 0.774346 3.134662 -10.560000 0.773507 3.172121 -10.560000 0.772394 3.209570 -10.560000 0.770992 3.247010 -10.560000 0.769295 3.284441 -10.560000 0.767310 3.321862 -10.560000 0.765038 3.359275 -10.560000 0.762501 3.396681 -10.560000 0.759737 3.434079 -10.560000 0.756751 3.471471 -10.560000 0.753551 3.508857 -10.560000 0.750163 3.546237 -10.560000 0.746600 3.583610 -10.560000 0.742830 2.718997 -10.120000 0.733903 2.759114 -10.120000 0.739056 2.799146 -10.120000 0.741290 2.839150 -10.120000 0.742528 2.879134 -10.120000 0.743121 2.919106 -10.120000 0.743284 2.959068 -10.120000 0.743116 2.999021 -10.120000 0.742637 3.038965 -10.120000 0.741858 3.078901 -10.120000 0.740787 3.118827 -10.120000 0.739407 3.158745 -10.120000 0.737713 3.198654 -10.120000 0.735711 3.238553 -10.120000 0.733405 3.278445 -10.120000 0.730815 3.318329 -10.120000 0.727983 3.358207 -10.120000 0.724914 3.398078 -10.120000 0.721618 3.437943 -10.120000 0.718121 3.477802 -10.120000 0.714438 3.517655 -10.120000 0.710534 2.603497 -9.680000 0.700897 2.646084 -9.680000 0.706492 2.688589 -9.680000 0.708987 2.731067 -9.680000 0.710423 2.773526 -9.680000 0.711176 2.815973 -9.680000 0.711471 2.858411 -9.680000 0.711415 2.900841 -9.680000 0.711029 2.943262 -9.680000 0.710323 2.985675 -9.680000 0.709308 3.028079 -9.680000 0.707964 3.070475 -9.680000 0.706288 3.112862 -9.680000 0.704284 3.155240 -9.680000 0.701957 3.197611 -9.680000 0.699328 3.239975 -9.680000 0.696443 3.282332 -9.680000 0.693306 3.324683 -9.680000 0.689928 3.367028 -9.680000 0.686336 3.409368 -9.680000 0.682547 3.451702 -9.680000 0.678523 2.487997 -9.240000 0.667891 2.533051 -9.240000 0.673942 2.578028 -9.240000 0.676712 2.622979 -9.240000 0.678362 2.667913 -9.240000 0.679288 2.712836 -9.240000 0.679730 2.757750 -9.240000 0.679799 2.802655 -9.240000 0.679520 2.847553 -9.240000 0.678903 2.892443 -9.240000 0.677957 2.937326 -9.240000 0.676665 2.982199 -9.240000 0.675020 3.027065 -9.240000 0.673028 3.071923 -9.240000 0.670695 3.116773 -9.240000 0.668042 3.161617 -9.240000 0.665117 3.206454 -9.240000 0.661926 3.251286 -9.240000 0.658480 3.296112 -9.240000 0.654808 3.340934 -9.240000 0.650926 3.385750 -9.240000 0.646797 2.372498 -8.800000 0.634885 2.420016 -8.800000 0.641407 2.467464 -8.800000 0.644466 2.514888 -8.800000 0.646343 2.562295 -8.800000 0.647457 2.609693 -8.800000 0.648060 2.657082 -8.800000 0.648269 2.704464 -8.800000 0.648111 2.751838 -8.800000 0.647596 2.799205 -8.800000 0.646735 2.846565 -8.800000 0.645507 2.893917 -8.800000 0.643909 2.941262 -8.800000 0.641943 2.988599 -8.800000 0.639617 3.035930 -8.800000 0.636955 3.083254 -8.800000 0.634005 3.130573 -8.800000 0.630775 3.177886 -8.800000 0.627275 3.225194 -8.800000 0.623536 3.272498 -8.800000 0.619577 3.319796 -8.800000 0.615356 2.256998 -8.360000 0.601879 2.306979 -8.360000 0.608886 2.356896 -8.360000 0.612248 2.406791 -8.360000 0.614367 2.456672 -8.360000 0.615682 2.506544 -8.360000 0.616460 2.556408 -8.360000 0.616825 2.606265 -8.360000 0.616802 2.656116 -8.360000 0.616403 2.705960 -8.360000 0.615641 2.755798 -8.360000 0.614493 2.805628 -8.360000 0.612954 2.855452 -8.360000 0.611030 2.905269 -8.360000 0.608725 2.955080 -8.360000 0.606067 3.004886 -8.360000 0.603107 3.054686 -8.360000 0.599851 3.104481 -8.360000 0.596311 3.154272 -8.360000 0.592521 3.204059 -8.360000 0.588498 3.253841 -8.360000 0.584200 2.141498 -7.920000 0.568873 2.193940 -7.920000 0.576378 2.246324 -7.920000 0.580059 2.298690 -7.920000 0.582434 2.351043 -7.920000 0.583965 2.403388 -7.920000 0.584933 2.455727 -7.920000 0.585466 2.508060 -7.920000 0.585593 2.560386 -7.920000 0.585325 2.612707 -7.920000 0.584675 2.665023 -7.920000 0.583621 2.717332 -7.920000 0.582156 2.769635 -7.920000 0.580287 2.821932 -7.920000 0.578019 2.874224 -7.920000 0.575379 2.926511 -7.920000 0.572423 2.978793 -7.920000 0.569156 3.031071 -7.920000 0.565591 3.083346 -7.920000 0.561763 3.135616 -7.920000 0.557691 3.187883 -7.920000 0.553330 2.025998 -7.480000 0.535867 2.080897 -7.480000 0.543886 2.135749 -7.480000 0.547898 2.190584 -7.480000 0.550543 2.245409 -7.480000 0.552305 2.300227 -7.480000 0.553476 2.355039 -7.480000 0.554192 2.409846 -7.480000 0.554483 2.464649 -7.480000 0.554360 2.519446 -7.480000 0.553838 2.574239 -7.480000 0.552891 2.629027 -7.480000 0.551515 2.683809 -7.480000 0.549715 2.738587 -7.480000 0.547498 2.793360 -7.480000 0.544891 2.848129 -7.480000 0.541952 2.902894 -7.480000 0.538688 2.957655 -7.480000 0.535112 3.012413 -7.480000 0.531261 3.067168 -7.480000 0.527154 3.121920 -7.480000 0.522745 1.910499 -7.040000 0.502861 1.967853 -7.040000 0.511407 2.025169 -7.040000 0.515765 2.082473 -7.040000 0.518696 2.139768 -7.040000 0.520702 2.197058 -7.040000 0.522091 2.254344 -7.040000 0.523004 2.311625 -7.040000 0.523473 2.368903 -7.040000 0.523510 2.426177 -7.040000 0.523129 2.483447 -7.040000 0.522304 2.540713 -7.040000 0.521031 2.597974 -7.040000 0.519314 2.655232 -7.040000 0.517162 2.712487 -7.040000 0.514602 2.769738 -7.040000 0.511695 2.826986 -7.040000 0.508449 2.884231 -7.040000 0.504877 2.941474 -7.040000 0.501016 2.998714 -7.040000 0.496889 3.055951 -7.040000 0.492444 1.791999 -6.600000 0.469869 1.852050 -6.600000 0.478045 1.912077 -6.600000 0.482273 1.972096 -6.600000 0.485155 2.032109 -6.600000 0.487165 2.092119 -6.600000 0.488594 2.152126 -6.600000 0.489574 2.212131 -6.600000 0.490135 2.272133 -6.600000 0.490288 2.332133 -6.600000 0.490048 2.392130 -6.600000 0.489389 2.452124 -6.600000 0.488308 2.512116 -6.600000 0.486808 2.572106 -6.600000 0.484897 2.632093 -6.600000 0.482603 2.692078 -6.600000 0.479981 2.752061 -6.600000 0.477039 2.812042 -6.600000 0.473790 2.872022 -6.600000 0.470269 2.932000 -6.600000 0.466496 2.991976 -6.600000 0.462425 1.673200 -6.160000 0.436880 1.735975 -6.160000 0.444520 1.798738 -6.160000 0.448535 1.861497 -6.160000 0.451314 1.924254 -6.160000 0.453294 1.987009 -6.160000 0.454739 2.049763 -6.160000 0.455773 2.112515 -6.160000 0.456421 2.175266 -6.160000 0.456696 2.238016 -6.160000 0.456609 2.300765 -6.160000 0.456138 2.363513 -6.160000 0.455279 2.426259 -6.160000 0.454037 2.489004 -6.160000 0.452416 2.551748 -6.160000 0.450444 2.614491 -6.160000 0.448171 2.677233 -6.160000 0.445604 2.739974 -6.160000 0.442755 2.802714 -6.160000 0.439657 2.865454 -6.160000 0.436327 2.928193 -6.160000 0.432723 1.554400 -5.720000 0.403892 1.619902 -5.720000 0.410915 1.685404 -5.720000 0.414682 1.750905 -5.720000 0.417339 1.816405 -5.720000 0.419276 1.881906 -5.720000 0.420734 1.947406 -5.720000 0.421822 2.012907 -5.720000 0.422564 2.078407 -5.720000 0.422970 2.143907 -5.720000 0.423051 2.209407 -5.720000 0.422787 2.274906 -5.720000 0.422175 2.340406 -5.720000 0.421217 2.405906 -5.720000 0.419921 2.471405 -5.720000 0.418307 2.536904 -5.720000 0.416425 2.602404 -5.720000 0.414278 2.667903 -5.720000 0.411877 2.733402 -5.720000 0.409252 2.798901 -5.720000 0.406420 2.864400 -5.720000 0.403341 1.435600 -5.280000 0.370906 1.503834 -5.280000 0.377233 1.572076 -5.280000 0.380716 1.640320 -5.280000 0.383228 1.708565 -5.280000 0.385113 1.776812 -5.280000 0.386579 1.845059 -5.280000 0.387722 1.913307 -5.280000 0.388563 1.981556 -5.280000 0.389111 2.049805 -5.280000 0.389374 2.118056 -5.280000 0.389336 2.186307 -5.280000 0.388994 2.254559 -5.280000 0.388350 2.322811 -5.280000 0.387411 2.391065 -5.280000 0.386194 2.459319 -5.280000 0.384742 2.527573 -5.280000 0.383060 2.595828 -5.280000 0.381156 2.664084 -5.280000 0.379056 2.732340 -5.280000 0.376775 2.800596 -5.280000 0.374278 1.316800 -4.840000 0.337921 1.387771 -4.840000 0.343472 1.458755 -4.840000 0.346635 1.529744 -4.840000 0.348983 1.600735 -4.840000 0.350805 1.671728 -4.840000 0.352275 1.742723 -4.840000 0.353474 1.813718 -4.840000 0.354419 1.884716 -4.840000 0.355117 1.955714 -4.840000 0.355578 2.026714 -4.840000 0.355785 2.097715 -4.840000 0.355737 2.168718 -4.840000 0.355436 2.239722 -4.840000 0.354886 2.310727 -4.840000 0.354104 2.381734 -4.840000 0.353124 2.452741 -4.840000 0.351951 2.523750 -4.840000 0.350591 2.594759 -4.840000 0.349068 2.665769 -4.840000 0.347392 2.736780 -4.840000 0.345535 1.198001 -4.400000 0.304938 1.271714 -4.400000 0.309632 1.345443 -4.400000 0.312440 1.419178 -4.400000 0.314604 1.492916 -4.400000 0.316351 1.566656 -4.400000 0.317821 1.640399 -4.400000 0.319076 1.714142 -4.400000 0.320131 1.787888 -4.400000 0.320991 1.861635 -4.400000 0.321662 1.935383 -4.400000 0.322134 2.009134 -4.400000 0.322404 2.082886 -4.400000 0.322474 2.156639 -4.400000 0.322347 2.230394 -4.400000 0.322037 2.304151 -4.400000 0.321570 2.377908 -4.400000 0.320950 2.451667 -4.400000 0.320184 2.525427 -4.400000 0.319287 2.599188 -4.400000 0.318271 2.672950 -4.400000 0.317111 1.079200 -3.960000 0.271956 1.155663 -3.960000 0.275714 1.232141 -3.960000 0.278131 1.308624 -3.960000 0.280090 1.385110 -3.960000 0.281752 1.461599 -3.960000 0.283217 1.538089 -3.960000 0.284530 1.614580 -3.960000 0.285699 1.691074 -3.960000 0.286731 1.767568 -
[...]
</DataArray></Cells><CellData><DataArray type="Float32" Name="gamma" format="ascii">
0.444981 0.270378 0.203599 0.168524 0.144688 0.127686 0.115230 0.105414 0.097278 0.090503 0.084243 0.078202 0.072218 0.065990 0.059454 0.053148 0.046498 0.039096 0.030818 0.020617 0.416352 0.271509 0.212450 0.181896 0.161003 0.146009 0.134898 0.125872 0.118062 0.111238 0.104578 0.097825 0.090857 0.083388 0.075378 0.067431 0.058939 0.049462 0.038829 0.025754 0.427638 0.283362 0.223309 0.192371 0.171227 0.156100 0.144932 0.135852 0.127958 0.121017 0.114161 0.107122 0.099773 0.091813 0.083200 0.074580 0.065301 0.054888 0.043136 0.028614 0.461955 0.304478 0.239744 0.206429 0.183711 0.167479 0.155509 0.145793 0.137357 0.129945 0.122628 0.115117 0.107271 0.098767 0.089559 0.080324 0.070371 0.059184 0.046537 0.030875 0.497179 0.326078 0.256556 0.220796 0.196439 0.179039 0.166200 0.155779 0.146734 0.138788 0.130952 0.122918 0.114533 0.105455 0.095630 0.085774 0.075149 0.063210 0.049706 0.032974 0.535097 0.348801 0.274080 0.235659 0.209524 0.190855 0.177071 0.165886 0.156185 0.147664 0.139279 0.130696 0.121753 0.112085 0.101633 0.091148 0.079851 0.067163 0.052812 0.035028 0.574362 0.372087 0.291963 0.250771 0.222787 0.202796 0.188027 0.176043 0.165659 0.156543 0.147589 0.138443 0.128931 0.118664 0.107581 0.096465 0.084497 0.071063 0.055872 0.037050 0.614001 0.395504 0.309900 0.265889 0.236018 0.214675 0.198894 0.186092 0.175007 0.165282 0.155751 0.146036 0.135951 0.125088 0.113377 0.101640 0.089012 0.074849 0.058841 0.039011 0.656317 0.419844 0.328242 0.281114 0.249152 0.226309 0.209407 0.195706 0.183862 0.173489 0.163356 0.153064 0.142412 0.130970 0.118660 0.106340 0.093104 0.078273 0.061523 0.040785 0.709679 0.443797 0.345104 0.294380 0.260142 0.235676 0.217530 0.202831 0.190163 0.179085 0.168344 0.157515 0.146381 0.134499 0.121780 0.109063 0.095435 0.080204 0.063015 0.041739 0.773001 0.466113 0.359524 0.304880 0.268298 0.242162 0.222688 0.206916 0.193365 0.181526 0.170165 0.158840 0.147315 0.135149 0.122236 0.109331 0.095559 0.080239 0.062977 0.041627 0.844269 0.490054 0.374482 0.315345 0.276069 0.248007 0.226999 0.209994 0.195439 0.182745 0.170705 0.158860 0.146949 0.134539 0.121501 0.108494 0.094688 0.079421 0.062256 0.041052 0.919269 0.514511 0.389553 0.325710 0.283609 0.253515 0.230875 0.212551 0.196921 0.183312 0.170552 0.158164 0.145865 0.133226 0.120098 0.107030 0.093248 0.078110 0.061138 0.040205 0.999702 0.540140 0.405132 0.336251 0.291135 0.258872 0.234489 0.214757 0.197982 0.183399 0.169880 0.156926 0.144231 0.131374 0.118183 0.105086 0.091369 0.076419 0.059711 0.039145 1.085282 0.566868 0.421216 0.347002 0.298704 0.264150 0.237922 0.216699 0.198713 0.183100 0.168782 0.155239 0.142138 0.129070 0.115838 0.102737 0.089121 0.074406 0.058024 0.037901 1.175700 0.594608 0.437782 0.357979 0.306357 0.269409 0.241247 0.218460 0.199204 0.182510 0.167354 0.153199 0.139682 0.126407 0.113151 0.100062 0.086573 0.072134 0.056122 0.036506 1.271680 0.623641 0.455020 0.369343 0.314248 0.274808 0.244631 0.220216 0.199636 0.181814 0.165786 0.150993 0.137044 0.123558 0.110281 0.097209 0.083857 0.069710 0.054093 0.035013 1.370721 0.653077 0.472536 0.380988 0.322467 0.280571 0.248396 0.222357 0.200449 0.181479 0.164555 0.149100 0.134691 0.120966 0.107643 0.094550 0.081294 0.067400 0.052135 0.033546 1.457981 0.683700 0.492425 0.395457 0.333607 0.289281 0.255141 0.227492 0.204248 0.184124 0.166258 0.150048 0.135050 0.120903 0.107305 0.093975 0.080574 0.066646 0.051416 0.032935 1.538848 0.718777 0.516527 0.413929 0.348490 0.301584 0.265453 0.236208 0.211645 0.190407 0.171594 0.154573 0.138876 0.124129 0.110011 0.096214 0.082392 0.068081 0.052476 0.033580 1.609287 0.751280 0.539565 0.432099 0.363512 0.314326 0.276430 0.245757 0.220004 0.197751 0.178055 0.160257 0.143865 0.128489 0.113794 0.099457 0.085119 0.070299 0.054162 0.034647 1.678451 0.782726 0.561638 0.449437 0.377860 0.326558 0.287054 0.255096 0.228280 0.205119 0.184632 0.166129 0.149097 0.133130 0.117877 0.103005 0.088142 0.072785 0.056071 0.035865 1.738292 0.810083 0.581005 0.464811 0.390735 0.337678 0.296846 0.263830 0.236133 0.212215 0.191057 0.171944 0.154346 0.137843 0.122073 0.106691 0.091310 0.075412 0.058103 0.037170 1.789062 0.832530 0.596799 0.477532 0.401677 0.347429 0.305705 0.271959 0.243624 0.219124 0.197420 0.177786 0.159683 0.142685 0.126425 0.110548 0.094658 0.078220 0.060301 0.038601 1.800234 0.839472 0.604714 0.486280 0.410690 0.356250 0.314043 0.279651 0.250595 0.225354 0.202924 0.182598 0.163847 0.146247 0.129429 0.113033 0.096655 0.079748 0.061366 0.039189 1.800076 0.839393 0.604656 0.486234 0.410653 0.356221 0.314020 0.279632 0.250580 0.225342 0.202914 0.182590 0.163840 0.146241 0.129424 0.113029 0.096652 0.079745 0.061364 0.039187 1.788227 0.832210 0.596612 0.477408 0.401589 0.347364 0.305655 0.271919 0.243592 0.219097 0.197397 0.177765 0.159665 0.142669 0.126409 0.110534 0.094646 0.078208 0.060292 0.038594 1.738002 0.809954 0.580919 0.464747 0.390686 0.337639 0.296814 0.263804 0.236111 0.212196 0.191041 0.171930 0.154335 0.137833 0.122065 0.106683 0.091304 0.075408 0.058100 0.037168 1.678495 0.782731 0.561632 0.449426 0.377847 0.326544 0.287040 0.255083 0.228267 0.205107 0.184621 0.166119 0.149088 0.133122 0.117871 0.103000 0.088137 0.072781 0.056068 0.035864 1.609390 0.751306 0.539569 0.432093 0.363501 0.314313 0.276416 0.245743 0.219991 0.197738 0.178044 0.160247 0.143856 0.128482 0.113787 0.099451 0.085115 0.070295 0.054159 0.034645 1.538639 0.718679 0.516457 0.413874 0.348445 0.301547 0.265423 0.236182 0.211624 0.190390 0.171579 0.154561 0.138866 0.124120 0.110004 0.096207 0.082387 0.068077 0.052473 0.033578 1.457313 0.683446 0.492279 0.395364 0.333544 0.289237 0.255109 0.227469 0.204230 0.184110 0.166247 0.150039 0.135042 0.120897 0.107300 0.093971 0.080570 0.066643 0.051413 0.032933 1.370951 0.653159 0.472580 0.381015 0.322484 0.280583 0.248405 0.222363 0.200453 0.181482 0.164558 0.149102 0.134693 0.120968 0.107645 0.094551 0.081295 0.067401 0.052136 0.033546 1.271964 0.623755 0.455091 0.369391 0.314283 0.274834 0.244651 0.220232 0.199649 0.181824 0.165794 0.151000 0.137050 0.123563 0.110285 0.097212 0.083859 0.069712 0.054095 0.035014 1.175732 0.594630 0.437802 0.357997 0.306373 0.269424 0.241260 0.218472 0.199214 0.182519 0.167362 0.153206 0.139688 0.126412 0.113155 0.100066 0.086577 0.072136 0.056124 0.036507 1.085384 0.566913 0.421247 0.347025 0.298723 0.264166 0.237935 0.216711 0.198723 0.183109 0.168789 0.155246 0.142144 0.129076 0.115843 0.102740 0.089124 0.074409 0.058025 0.037902 0.999788 0.540178 0.405159 0.336271 0.291152 0.258886 0.234501 0.214767 0.197991 0.183407 0.169887 0.156932 0.144236 0.131378 0.118187 0.105089 0.091372 0.076421 0.059713 0.039146 0.919311 0.514532 0.389570 0.325724 0.283621 0.253525 0.230884 0.212559 0.196928 0.183318 0.170557 0.158169 0.145869 0.133229 0.120101 0.107033 0.093250 0.078111 0.061139 0.040206 0.844381 0.490098 0.374509 0.315363 0.276082 0.248017 0.227007 0.210000 0.195443 0.182748 0.170708 0.158862 0.146952 0.134541 0.121502 0.108495 0.094689 0.079422 0.062257 0.041053 0.772933 0.466085 0.359505 0.304866 0.268288 0.242154 0.222682 0.206912 0.193362 0.181524 0.170164 0.158840 0.147315 0.135149 0.122236 0.109332 0.095560 0.080240 0.062978 0.041627 0.709457 0.443711 0.345055 0.294349 0.260123 0.235664 0.217523 0.202828 0.190161 0.179086 0.168345 0.157517 0.146383 0.134501 0.121783 0.109065 0.095437 0.080205 0.063016 0.041740 0.656555 0.419945 0.328308 0.281163 0.249190 0.226339 0.209432 0.195726 0.183879 0.173503 0.163369 0.153075 0.142421 0.130978 0.118667 0.106346 0.093108 0.078277 0.061526 0.040787 0.614261 0.395618 0.309976 0.265947 0.236063 0.214712 0.198925 0.186118 0.175029 0.165301 0.155767 0.146050 0.135963 0.125099 0.113386 0.101647 0.089018 0.074854 0.058845 0.039014 0.574461 0.372137 0.292001 0.250803 0.222814 0.202820 0.188048 0.176062 0.165676 0.156558 0.147603 0.138455 0.128941 0.118673 0.107588 0.096471 0.084502 0.071067 0.055875 0.037052 0.535338 0.348903 0.274148 0.235708 0.209562 0.190884 0.177095 0.165905 0.156200 0.147677 0.139289 0.130704 0.121760 0.112090 0.101637 0.091152 0.079854 0.067165 0.052813 0.035029 0.497131 0.326067 0.256556 0.220800 0.196446 0.179045 0.166206 0.155784 0.146737 0.138789 0.130952 0.122916 0.114530 0.105451 0.095626 0.085769 0.075144 0.063205 0.049701 0.032971 0.463073 0.304895 0.239971 0.206557 0.183778 0.167506 0.155511 0.145778 0.137332 0.129913 0.122594 0.115082 0.107237 0.098737 0.089532 0.080302 0.070352 0.059171 0.046528 0.030870 0.423088 0.281470 0.222106 0.191523 0.170604 0.155629 0.144570 0.135571 0.127737 0.120841 0.114019 0.107006 0.099677 0.091731 0.083130 0.074519 0.065249 0.054842 0.043099 0.028589 0.421024 0.273406 0.213622 0.182692 0.161562 0.146405 0.135179 0.126069 0.118198 0.111329 0.104636 0.097860 0.090876 0.083397 0.075382 0.067432 0.058940 0.049465 0.038833 0.025759 0.439376 0.267995 0.202036 0.167382 0.143814 0.126998 0.114679 0.104968 0.096914 0.090203 0.083995 0.077995 0.072044 0.065845 0.059331 0.053044 0.046410 0.039024 0.030763 0.020581
</DataArray><DataArray type="Float32" Name="induced_velocity" NumberOfComponents="3" format="ascii">
9.774406 0.120902 3.207146 10.113277 0.027224 0.702012 10.073953 -0.021534 0.131512 10.044543 -0.043874 -0.110394 10.022714 -0.058095 -0.257908 10.007739 -0.068242 -0.359945 9.997216 -0.077105 -0.442852 9.988719 -0.086453 -0.518740 9.981292 -0.096996 -0.590793 9.974392 -0.109310 -0.662202 9.967125 -0.123944 -0.734324 9.959404 -0.140955 -0.805244 9.951243 -0.160365 -0.873825 9.942713 -0.182069 -0.938172 9.934394 -0.205616 -0.994951 9.926621 -0.230840 -1.045448 9.918907 -0.257922 -1.092040 9.911486 -0.286469 -1.132237 9.904756 -0.315990 -1.163990 9.898838 -0.346110 -1.184723 9.772098 0.138926 3.423774 10.087600 0.061209 1.273929 10.064495 0.015677 0.731972 10.043587 -0.006413 0.497632 10.026492 -0.020914 0.353264 10.014033 -0.031096 0.253015 10.004667 -0.039296 0.171341 9.996354 -0.046956 0.096382 9.988377 -0.054552 0.025064 9.980376 -0.062480 -0.045770 9.971506 -0.071114 -0.117459 9.961775 -0.080390 -0.188059 9.951302 -0.090262 -0.256412 9.940247 -0.100605 -0.320596 9.929343 -0.111043 -0.377226 9.919098 -0.121554 -0.427570 9.909054 -0.132400 -0.473989 9.899521 -0.143312 -0.513870 9.891017 -0.153976 -0.544873 9.883779 -0.164060 -0.563336 9.767066 0.140972 3.470835 10.080288 0.068891 1.403160 10.061676 0.025126 0.867608 10.043076 0.003864 0.634716 10.027423 -0.010139 0.490734 10.015918 -0.020002 0.390560 10.007224 -0.027984 0.308866 9.999380 -0.035482 0.233870 9.991695 -0.042934 0.162532 9.983831 -0.050696 0.091705 9.974936 -0.059109 0.020053 9.965019 -0.068072 -0.050475 9.954208 -0.077506 -0.118720 9.942675 -0.087259 -0.182754 9.931179 -0.096934 -0.239185 9.920279 -0.106494 -0.289274 9.909536 -0.116192 -0.335371 9.899284 -0.125758 -0.374824 9.890077 -0.134882 -0.405187 9.882189 -0.143214 -0.422413 9.756913 0.141275 3.514613 10.081493 0.069554 1.409713 10.063498 0.025928 0.871046 10.045090 0.004870 0.637252 10.029557 -0.008928 0.492862 10.018165 -0.018606 0.392463 10.009595 -0.026432 0.310635 10.001877 -0.033812 0.235555 9.994309 -0.041190 0.164168 9.986546 -0.048920 0.093320 9.977726 -0.057343 0.021670 9.967847 -0.066358 -0.048835 9.957030 -0.075880 -0.117036 9.945442 -0.085751 -0.181003 9.933838 -0.095568 -0.237339 9.922795 -0.105277 -0.287301 9.911880 -0.115124 -0.333234 9.901425 -0.124835 -0.372466 9.891991 -0.134089 -0.402503 9.883860 -0.142524 -0.419123 9.746531 0.141156 3.552996 10.082707 0.069840 1.411563 10.065391 0.026313 0.869898 10.047188 0.005405 0.635295 10.031758 -0.008232 0.490584 10.020444 -0.017749 0.390037 10.011955 -0.025416 0.308139 10.004322 -0.032644 0.233027 9.996837 -0.039883 0.161627 9.989159 -0.047489 0.090780 9.980418 -0.055808 0.019137 9.970604 -0.064742 -0.051353 9.959835 -0.074209 -0.119532 9.948272 -0.084054 -0.183467 9.936667 -0.093870 -0.239758 9.925604 -0.103601 -0.289660 9.914654 -0.113488 -0.335513 9.904146 -0.123257 -0.374631 9.894638 -0.132585 -0.404494 9.886409 -0.141101 -0.420776 9.735637 0.140623 3.587012 10.084514 0.069456 1.401500 10.067635 0.025939 0.856205 10.049499 0.005158 0.620630 10.034085 -0.008322 0.475535 10.022794 -0.017670 0.374816 10.014352 -0.025165 0.292837 10.006782 -0.032228 0.217687 9.999368 -0.039314 0.146274 9.991771 -0.046782 0.075428 9.983113 -0.054983 0.003794 9.973378 -0.063826 -0.066682 9.962681 -0.073231 -0.134840 9.951174 -0.083044 -0.198748 9.939605 -0.092863 -0.255004 9.928566 -0.102624 -0.304858 9.917632 -0.112568 -0.350647 9.907123 -0.122421 -0.389678 9.897595 -0.131856 -0.419407 9.889321 -0.140501 -0.435428 9.724533 0.139827 3.616704 10.086436 0.068796 1.386105 10.069956 0.025260 0.837085 10.051858 0.004586 0.600512 10.036440 -0.008746 0.455027 10.025158 -0.017929 0.354133 10.016752 -0.025251 0.272073 10.009237 -0.032138 0.196886 10.001893 -0.039053 0.125459 9.994379 -0.046357 0.054611 9.985813 -0.054407 -0.017018 9.976170 -0.063116 -0.087485 9.965561 -0.072406 -0.155630 9.954134 -0.082128 -0.219521 9.942628 -0.091881 -0.275754 9.931643 -0.101599 -0.325576 9.920755 -0.111520 -0.371321 9.910279 -0.121373 -0.410290 9.900765 -0.130829 -0.439920 9.892477 -0.139517 -0.455741 9.713410 0.138988 3.642357 10.088144 0.068278 1.369476 10.072125 0.024766 0.816948 10.054081 0.004214 0.579436 10.038664 -0.008971 0.433584 10.027390 -0.017996 0.332525 10.019020 -0.025153 0.250387 10.011564 -0.031874 0.175162 10.004295 -0.038624 0.103716 9.996878 -0.045765 0.032861 9.988423 -0.053657 -0.038771 9.978899 -0.062213 -0.109239 9.968412 -0.071360 -0.177383 9.957103 -0.080948 -0.241271 9.945702 -0.090579 -0.297498 9.934814 -0.100184 -0.347307 9.924018 -0.110001 -0.393032 9.913618 -0.119761 -0.431967 9.904159 -0.129138 -0.461539 9.895894 -0.137761 -0.477233 9.701873 0.139053 3.665791 10.090247 0.068516 1.343989 10.074307 0.024920 0.787340 10.056058 0.004379 0.548694 10.040469 -0.008781 0.402377 10.029095 -0.017783 0.301093 10.020695 -0.024915 0.218838 10.013272 -0.031603 0.143549 10.006088 -0.038308 0.072069 9.998804 -0.045381 0.001199 9.990526 -0.053174 -0.070434 9.981211 -0.061595 -0.140890 9.970956 -0.070562 -0.209012 9.959891 -0.079923 -0.272867 9.948729 -0.089277 -0.329049 9.938070 -0.098555 -0.378800 9.927493 -0.107994 -0.424454 9.917288 -0.117333 -0.463305 9.907987 -0.126258 -0.492780 9.899824 -0.134413 -0.508368 9.707396 0.147175 3.671715 10.091904 0.071394 1.266213 10.073861 0.025927 0.722461 10.055190 0.004277 0.492134 10.039615 -0.009619 0.351958 10.028324 -0.019140 0.255355 10.020019 -0.026657 0.177149 10.012759 -0.033623 0.105712 10.005820 -0.040499 0.037965 9.998872 -0.047632 -0.029169 9.991068 -0.055343 -0.097015 9.982360 -0.063510 -0.163749 9.972829 -0.072024 -0.228280 9.962584 -0.080712 -0.288778 9.952270 -0.089173 -0.342005 9.942441 -0.097346 -0.389130 9.932706 -0.105467 -0.432355 9.923316 -0.113287 -0.469079 9.914753 -0.120522 -0.496781 9.907228 -0.126850 -0.510906 9.730866 0.154061 3.655740 10.088652 0.063712 1.148979 10.067920 0.019661 0.638176 10.049572 -0.000752 0.426650 10.034889 -0.013657 0.299750 10.024388 -0.022448 0.213065 10.016706 -0.029360 0.143342 10.010055 -0.035729 0.079916 10.003767 -0.041972 0.019909 9.997538 -0.048395 -0.039486 9.990634 -0.055271 -0.099486 9.983005 -0.062479 -0.158491 9.974716 -0.069908 -0.215541 9.965851 -0.077395 -0.269013 9.956944 -0.084578 -0.316014 9.948469 -0.091407 -0.357563 9.940100 -0.098084 -0.395592 9.932039 -0.104395 -0.427721 9.924689 -0.110090 -0.451543 9.918235 -0.114864 -0.462415 9.755546 0.160193 3.638579 10.083580 0.052967 1.014995 10.060986 0.010818 0.538016 10.043218 -0.008030 0.345917 10.029526 -0.019651 0.232772 10.019863 -0.027431 0.156372 10.012838 -0.033467 0.095455 10.006836 -0.038974 0.040358 10.001244 -0.044337 -0.011591 9.995789 -0.049830 -0.062913 9.989840 -0.055691 -0.114711 9.983350 -0.061809 -0.165617 9.976365 -0.068087 -0.214807 9.968943 -0.074377 -0.260870 9.961509 -0.080368 -0.301281 9.954453 -0.086015 -0.336902 9.947507 -0.091488 -0.369384 9.940826 -0.096602 -0.396584 9.934730 -0.101138 -0.416227 9.929375 -0.104797 -0.423615 9.780400 0.166332 3.623116 10.076031 0.041418 0.882234 10.053091 0.001549 0.439224 10.036465 -0.015605 0.266569 10.024028 -0.025868 0.167179 10.015337 -0.032578 0.101061 10.009048 -0.037674 0.048942 10.003736 -0.042251 0.002163 9.998858 -0.046663 -0.041740 9.994172 -0.051156 -0.085003 9.989154 -0.055934 -0.128611 9.983756 -0.060905 -0.171425 9.978010 -0.065986 -0.212755 9.971953 -0.071050 -0.251403 9.965911 -0.075837 -0.285211 9.960194 -0.080307 -0.314886 9.954589 -0.084601 -0.341798 9.949205 -0.088562 -0.364044 9.944289 -0.091996 -0.379484 9.939961 -0.094613 -0.383382 9.805366 0.172513 3.608961 10.066257 0.028823 0.745294 10.044418 -0.008426 0.335884 10.029468 -0.023753 0.182534 10.018543 -0.032579 0.096831 10.010968 -0.038154 0.040956 10.005503 -0.042250 -0.002389 10.000932 -0.045838 -0.040867 9.996790 -0.049242 -0.076738 9.992871 -0.052679 -0.111952 9.988750 -0.056323 -0.147376 9.984385 -0.060103 -0.182100 9.979794 -0.063949 -0.215567 9.974998 -0.067759 -0.246789 9.970236 -0.071319 -0.273977 9.965746 -0.074598 -0.297688 9.961364 -0.077708 -0.319005 9.957161 -0.080517 -0.336268 9.953317 -0.082858 -0.347478 9.949915 -0.084443 -0.347856 9.830631 0.178774 3.596291 10.054129 0.015252 0.606210 10.034936 -0.019029 0.230091 10.022247 -0.032404 0.095935 10.013124 -0.039721 0.023864 10.006826 -0.044107 -0.021796 10.002285 -0.047149 -0.056385 9.998515 -0.049693 -0.086575 9.995137 -0.052030 -0.114423 9.991982 -0.054351 -0.141596 9.988725 -0.056802 -0.168841 9.985329 -0.059330 -0.195476 9.981804 -0.061885 -0.221074 9.978157 -0.064386 -0.244860 9.974555 -0.066667 -0.265413 9.971170 -0.068705 -0.283138 9.967881 -0.070583 -0.298838 9.964729 -0.072196 -0.311090 9.961836 -0.073398 -0.318038 9.959249 -0.073905 -0.314857 9.856430 0.185036 3.585092 10.039649 0.000712 0.466635 10.024705 -0.030212 0.123527 10.014890 -0.041477 0.008465 10.007876 -0.047185 -0.050022 10.003028 -0.050298 -0.085493 9.999515 -0.052209 -0.111341 9.996605 -0.053631 -0.133254 9.994014 -0.054823 -0.153087 9.991619 -0.055949 -0.172223 9.989188 -0.057130 -0.191291 9.986692 -0.058332 -0.209832 9.984135 -0.059523 -0.227554 9.981518 -0.060646 -0.243890 9.978944 -0.061584 -0.257788 9.976532 -0.062317 -0.269506 9.974197 -0.062907 -0.279560 9.971957 -0.063267 -0.286769 9.969884 -0.063276 -0.289418 9.967990 -0.062650 -0.282624 9.883131 0.190826 3.573863 10.023151 -0.015363 0.323487 10.014061 -0.042517 0.012861 10.007729 -0.051475 -0.083282 10.003119 -0.055431 -0.128263 9.999875 -0.057150 -0.153581 9.997475 -0.057812 -0.170705 9.995463 -0.057998 -0.184345 9.993662 -0.057933 -0.196162 9.991997 -0.057753 -0.207254 9.990328 -0.057554 -0.218131 9.988638 -0.057324 -0.228561 9.986928 -0.057050 -0.238383 9.985197 -0.056698 -0.247240 9.983501 -0.056197 -0.254448 9.981907 -0.055537 -0.260121 9.980366 -0.054752 -0.264485 9.978880 -0.053779 -0.266602 9.977481 -0.052516 -0.264893 9.976144 -0.050677 -0.254403 9.912325 0.193681 3.560300 10.005992 -0.034326 0.181878 10.004319 -0.056738 -0.096286 10.001952 -0.062803 -0.173457 9.999893 -0.064595 -0.204837 9.998268 -0.064600 -0.219873 9.996939 -0.063750 -0.228121 9.995751 -0.062465 -0.233322 9.994645 -0.060924 -0.236941 9.993595 -0.059229 -0.239797 9.992551 -0.057444 -0.242280 9.991505 -0.055579 -0.244387 9.990459 -0.053638 -0.246088 9.989411 -0.051612 -0.247237 9.988379 -0.049479 -0.247522 9.987389 -0.047236 -0.246910 9.986421 -0.044898 -0.245340 9.985471 -0.042427 -0.242114 9.984540 -0.039743 -0.235784 9.983574 -0.036559 -0.221293 9.922582 0.171850 3.553368 9.994256 -0.044894 0.088636 9.998817 -0.061018 -0.171491 9.999689 -0.064246 -0.237799 9.999658 -0.064247 -0.261315 9.999320 -0.062917 -0.270385 9.998852 -0.060887 -0.273465 9.998315 -0.058434 -0.273735 9.997739 -0.055695 -0.272546 9.997138 -0.052750 -0.270550 9.996516 -0.049652 -0.268070 9.995876 -0.046429 -0.265235 9.995223 -0.043104 -0.262094 9.994556 -0.039687 -0.258626 9.993880 -0.036187 -0.254741 9.993197 -0.032606