<?xml version='1.0' encoding='utf-8'?>
<VTKFile type="UnstructuredGrid" version="0.1" byte_order="LittleEndian"><UnstructuredGrid><Piece NumberOfPoints="1071" NumberOfCells="1000"><Points><DataArray type="Float32" Name="Points" NumberOfComponents="3" format="ascii">
2.949997 -11.000000 0.799915 2.985169 -11.000000 0.804227 3.020252 -11.000000 0.805982 3.055304 -11.000000 0.806865 3.090336 -11.000000 0.807183 3.125355 -11.000000 0.807124 3.160365 -11.000000 0.806775 3.195364 -11.000000 0.806154 3.230355 -11.000000 0.805270 3.265336 -11.000000 0.804130 3.300308 -11.000000 0.802719 3.335271 -11.000000 0.801034 3.370224 -11.000000 0.799079 3.405168 -11.000000 0.796857 3.440103 -11.000000 0.794387 3.475030 -11.000000 0.791705 3.509951 -11.000000 0.788815 3.544864 -11.000000 0.785726 3.579772 -11.000000 0.782461 3.614673 -11.000000 0.779033 3.649568 -11.000000 0.775412 2.834497 -10.560000 0.766909 2.872143 -10.560000 0.771635 2.909701 -10.560000 0.773622 2.947229 -10.560000 0.774675 2.984737 -10.560000 0.775123 3.022233 -10.560000 0.775169 3.059719 -10.560000 0.774903 3.097195 -10.560000 0.774346 3.134662 -10.560000 0.773507 3.172121 -10.560000 0.772394 3.209570 -10.560000 0.770992 3.247010 -10.560000 0.769295 3.284441 -10.560000 0.767310 3.321862 -10.560000 0.765038 3.359275 -10.560000 0.762501 3.396681 -10.560000 0.759737 3.434079 -10.560000 0.756751 3.471471 -10.560000 0.753551 3.508857 -10.560000 0.750163 3.546237 -10.560000 0.746600 3.583610 -10.560000 0.742830 2.718997 -10.120000 0.733903 2.759114 -10.120000 0.739056 2.799146 -10.120000 0.741290 2.839150 -10.120000 0.742528 2.879134 -10.120000 0.743121 2.919106 -10.120000 0.743284 2.959068 -10.120000 0.743116 2.999021 -10.120000 0.742637 3.038965 -10.120000 0.741858 3.078901 -10.120000 0.740787 3.118827 -10.120000 0.739407 3.158745 -10.120000 0.737713 3.198654 -10.120000 0.735711 3.238553 -10.120000 0.733405 3.278445 -10.120000 0.730815 3.318329 -10.120000 0.727983 3.358207 -10.120000 0.724914 3.398078 -10.120000 0.721618 3.437943 -10.120000 0.718121 3.477802 -10.120000 0.714438 3.517655 -10.120000 0.710534 2.603497 -9.680000 0.700897 2.646084 -9.680000 0.706492 2.688589 -9.680000 0.708987 2.731067 -9.680000 0.710423 2.773526 -9.680000 0.711176 2.815973 -9.680000 0.711471 2.858411 -9.680000 0.711415 2.900841 -9.680000 0.711029 2.943262 -9.680000 0.710323 2.985675 -9.680000 0.709308 3.028079 -9.680000 0.707964 3.070475 -9.680000 0.706288 3.112862 -9.680000 0.704284 3.155240 -9.680000 0.701957 3.197611 -9.680000 0.699328 3.239975 -9.680000 0.696443 3.282332 -9.680000 0.693306 3.324683 -9.680000 0.689928 3.367028 -9.680000 0.686336 3.409368 -9.680000 0.682547 3.451702 -9.680000 0.678523 2.487997 -9.240000 0.667891 2.533051 -9.240000 0.673942 2.578028 -9.240000 0.676712 2.622979 -9.240000 0.678362 2.667913 -9.240000 0.679288 2.712836 -9.240000 0.679730 2.757750 -9.240000 0.679799 2.802655 -9.240000 0.679520 2.847553 -9.240000 0.678903 2.892443 -9.240000 0.677957 2.937326 -9.240000 0.676665 2.982199 -9.240000 0.675020 3.027065 -9.240000 0.673028 3.071923 -9.240000 0.670695 3.116773 -9.240000 0.668042 3.161617 -9.240000 0.665117 3.206454 -9.240000 0.661926 3.251286 -9.240000 0.658480 3.296112 -9.240000 0.654808 3.340934 -9.240000 0.650926 3.385750 -9.240000 0.646797 2.372498 -8.800000 0.634885 2.420016 -8.800000 0.641407 2.467464 -8.800000 0.644466 2.514888 -8.800000 0.646343 2.562295 -8.800000 0.647457 2.609693 -8.800000 0.648060 2.657082 -8.800000 0.648269 2.704464 -8.800000 0.648111 2.751838 -8.800000 0.647596 2.799205 -8.800000 0.646735 2.846565 -8.800000 0.645507 2.893917 -8.800000 0.643909 2.941262 -8.800000 0.641943 2.988599 -8.800000 0.639617 3.035930 -8.800000 0.636955 3.083254 -8.800000 0.634005 3.130573 -8.800000 0.630775 3.177886 -8.800000 0.627275 3.225194 -8.800000 0.623536 3.272498 -8.800000 0.619577 3.319796 -8.800000 0.615356 2.256998 -8.360000 0.601879 2.306979 -8.360000 0.608886 2.356896 -8.360000 0.612248 2.406791 -8.360000 0.614367 2.456672 -8.360000 0.615682 2.506544 -8.360000 0.616460 2.556408 -8.360000 0.616825 2.606265 -8.360000 0.616802 2.656116 -8.360000 0.616403 2.705960 -8.360000 0.615641 2.755798 -8.360000 0.614493 2.805628 -8.360000 0.612954 2.855452 -8.360000 0.611030 2.905269 -8.360000 0.608725 2.955080 -8.360000 0.606067 3.004886 -8.360000 0.603107 3.054686 -8.360000 0.599851 3.104481 -8.360000 0.596311 3.154272 -8.360000 0.592521 3.204059 -8.360000 0.588498 3.253841 -8.360000 0.584200 2.141498 -7.920000 0.568873 2.193940 -7.920000 0.576378 2.246324 -7.920000 0.580059 2.298690 -7.920000 0.582434 2.351043 -7.920000 0.583965 2.403388 -7.920000 0.584933 2.455727 -7.920000 0.585466 2.508060 -7.920000 0.585593 2.560386 -7.920000 0.585325 2.612707 -7.920000 0.584675 2.665023 -7.920000 0.583621 2.717332 -7.920000 0.582156 2.769635 -7.920000 0.580287 2.821932 -7.920000 0.578019 2.874224 -7.920000 0.575379 2.926511 -7.920000 0.572423 2.978793 -7.920000 0.569156 3.031071 -7.920000 0.565591 3.083346 -7.920000 0.561763 3.135616 -7.920000 0.557691 3.187883 -7.920000 0.553330 2.025998 -7.480000 0.535867 2.080897 -7.480000 0.543886 2.135749 -7.480000 0.547898 2.190584 -7.480000 0.550543 2.245409 -7.480000 0.552305 2.300227 -7.480000 0.553476 2.355039 -7.480000 0.554192 2.409846 -7.480000 0.554483 2.464649 -7.480000 0.554360 2.519446 -7.480000 0.553838 2.574239 -7.480000 0.552891 2.629027 -7.480000 0.551515 2.683809 -7.480000 0.549715 2.738587 -7.480000 0.547498 2.793360 -7.480000 0.544891 2.848129 -7.480000 0.541952 2.902894 -7.480000 0.538688 2.957655 -7.480000 0.535112 3.012413 -7.480000 0.531261 3.067168 -7.480000 0.527154 3.121920 -7.480000 0.522745 1.910499 -7.040000 0.502861 1.967853 -7.040000 0.511407 2.025169 -7.040000 0.515765 2.082473 -7.040000 0.518696 2.139768 -7.040000 0.520702 2.197058 -7.040000 0.522091 2.254344 -7.040000 0.523004 2.311625 -7.040000 0.523473 2.368903 -7.040000 0.523510 2.426177 -7.040000 0.523129 2.483447 -7.040000 0.522304 2.540713 -7.040000 0.521031 2.597974 -7.040000 0.519314 2.655232 -7.040000 0.517162 2.712487 -7.040000 0.514602 2.769738 -7.040000 0.511695 2.826986 -7.040000 0.508449 2.884231 -7.040000 0.504877 2.941474 -7.040000 0.501016 2.998714 -7.040000 0.496889 3.055951 -7.040000 0.492444 1.791999 -6.600000 0.469869 1.852050 -6.600000 0.478045 1.912077 -6.600000 0.482273 1.972096 -6.600000 0.485155 2.032109 -6.600000 0.487165 2.092119 -6.600000 0.488594 2.152126 -6.600000 0.489574 2.212131 -6.600000 0.490135 2.272133 -6.600000 0.490288 2.332133 -6.600000 0.490048 2.392130 -6.600000 0.489389 2.452124 -6.600000 0.488308 2.512116 -6.600000 0.486808 2.572106 -6.600000 0.484897 2.632093 -6.600000 0.482603 2.692078 -6.600000 0.479981 2.752061 -6.600000 0.477039 2.812042 -6.600000 0.473790 2.872022 -6.600000 0.470269 2.932000 -6.600000 0.466496 2.991976 -6.600000 0.462425 1.673200 -6.160000 0.436880 1.735975 -6.160000 0.444520 1.798738 -6.160000 0.448535 1.861497 -6.160000 0.451314 1.924254 -6.160000 0.453294 1.987009 -6.160000 0.454739 2.049763 -6.160000 0.455773 2.112515 -6.160000 0.456421 2.175266 -6.160000 0.456696 2.238016 -6.160000 0.456609 2.300765 -6.160000 0.456138 2.363513 -6.160000 0.455279 2.426259 -6.160000 0.454037 2.489004 -6.160000 0.452416 2.551748 -6.160000 0.450444 2.614491 -6.160000 0.448171 2.677233 -6.160000 0.445604 2.739974 -6.160000 0.442755 2.802714 -6.160000 0.439657 2.865454 -6.160000 0.436327 2.928193 -6.160000 0.432723 1.554400 -5.720000 0.403892 1.619902 -5.720000 0.410915 1.685404 -5.720000 0.414682 1.750905 -5.720000 0.417339 1.816405 -5.720000 0.419276 1.881906 -5.720000 0.420734 1.947406 -5.720000 0.421822 2.012907 -5.720000 0.422564 2.078407 -5.720000 0.422970 2.143907 -5.720000 0.423051 2.209407 -5.720000 0.422787 2.274906 -5.720000 0.422175 2.340406 -5.720000 0.421217 2.405906 -5.720000 0.419921 2.471405 -5.720000 0.418307 2.536904 -5.720000 0.416425 2.602404 -5.720000 0.414278 2.667903 -5.720000 0.411877 2.733402 -5.720000 0.409252 2.798901 -5.720000 0.406420 2.864400 -5.720000 0.403341 1.435600 -5.280000 0.370906 1.503834 -5.280000 0.377233 1.572076 -5.280000 0.380716 1.640320 -5.280000 0.383228 1.708565 -5.280000 0.385113 1.776812 -5.280000 0.386579 1.845059 -5.280000 0.387722 1.913307 -5.280000 0.388563 1.981556 -5.280000 0.389111 2.049805 -5.280000 0.389374 2.118056 -5.280000 0.389336 2.186307 -5.280000 0.388994 2.254559 -5.280000 0.388350 2.322811 -5.280000 0.387411 2.391065 -5.280000 0.386194 2.459319 -5.280000 0.384742 2.527573 -5.280000 0.383060 2.595828 -5.280000 0.381156 2.664084 -5.280000 0.379056 2.732340 -5.280000 0.376775 2.800596 -5.280000 0.374278 1.316800 -4.840000 0.337921 1.387771 -4.840000 0.343472 1.458755 -4.840000 0.346635 1.529744 -4.840000 0.348983 1.600735 -4.840000 0.350805 1.671728 -4.840000 0.352275 1.742723 -4.840000 0.353474 1.813718 -4.840000 0.354419 1.884716 -4.840000 0.355117 1.955714 -4.840000 0.355578 2.026714 -4.840000 0.355785 2.097715 -4.840000 0.355737 2.168718 -4.840000 0.355436 2.239722 -4.840000 0.354886 2.310727 -4.840000 0.354104 2.381734 -4.840000 0.353124 2.452741 -4.840000 0.351951 2.523750 -4.840000 0.350591 2.594759 -4.840000 0.349068 2.665769 -4.840000 0.347392 2.736780 -4.840000 0.345535 1.198001 -4.400000 0.304938 1.271714 -4.400000 0.309632 1.345443 -4.400000 0.312440 1.419178 -4.400000 0.314604 1.492916 -4.400000 0.316351 1.566656 -4.400000 0.317821 1.640399 -4.400000 0.319076 1.714142 -4.400000 0.320131 1.787888 -4.400000 0.320991 1.861635 -4.400000 0.321662 1.935383 -4.400000 0.322134 2.009134 -4.400000 0.322404 2.082886 -4.400000 0.322474 2.156639 -4.400000 0.322347 2.230394 -4.400000 0.322037 2.304151 -4.400000 0.321570 2.377908 -4.400000 0.320950 2.451667 -4.400000 0.320184 2.525427 -4.400000 0.319287 2.599188 -4.400000 0.318271 2.672950 -4.400000 0.317111 1.079200 -3.960000 0.271956 1.155663 -3.960000 0.275714 1.232141 -3.960000 0.278131 1.308624 -3.960000 0.280090 1.385110 -3.960000 0.281752 1.461599 -3.960000 0.283217 1.538089 -3.960000 0.284530 1.614580 -3.960000 0.285699 1.691074 -3.960000 0.286731 1.767568 -
[...]
</DataArray></Cells><CellData><DataArray type="Float32" Name="gamma" format="ascii">
0.422899 0.262772 0.199920 0.166896 0.144333 0.128176 0.116294 0.106865 0.098980 0.092353 0.086161 0.080123 0.074090 0.067770 0.061103 0.054637 0.047797 0.040177 0.031650 0.021144 0.546346 0.330077 0.253182 0.213464 0.186697 0.167514 0.153224 0.141688 0.131835 0.123308 0.115202 0.107198 0.099127 0.090669 0.081754 0.072955 0.063638 0.053330 0.041806 0.027659 0.611286 0.366959 0.282120 0.238517 0.209262 0.188320 0.172695 0.160044 0.149194 0.139746 0.130722 0.121774 0.112717 0.103205 0.093157 0.083179 0.072584 0.060850 0.047696 0.031510 0.652098 0.391726 0.301657 0.255452 0.224490 0.202340 0.185812 0.172418 0.160911 0.150867 0.141247 0.131683 0.121979 0.111766 0.100958 0.090193 0.078743 0.066044 0.051782 0.034205 0.679606 0.409952 0.316219 0.268170 0.235968 0.212939 0.195766 0.181842 0.169867 0.159401 0.149352 0.139337 0.129151 0.118406 0.107012 0.095647 0.083539 0.070094 0.054976 0.036322 0.698179 0.423851 0.327535 0.278173 0.245062 0.221391 0.203753 0.189451 0.177138 0.166367 0.156001 0.145640 0.135074 0.123902 0.112030 0.100176 0.087529 0.073466 0.057639 0.038096 0.709781 0.434396 0.336355 0.286102 0.252349 0.228224 0.210269 0.195708 0.183161 0.172178 0.161578 0.150953 0.140088 0.128566 0.116295 0.104033 0.090934 0.076347 0.059919 0.039621 0.715358 0.442030 0.342997 0.292213 0.258039 0.233619 0.215468 0.200747 0.188052 0.176936 0.166177 0.155357 0.144262 0.132460 0.119862 0.107268 0.093796 0.078773 0.061843 0.040916 0.715945 0.447124 0.347621 0.296536 0.262071 0.237441 0.219160 0.204338 0.191551 0.180359 0.169500 0.158552 0.147298 0.135296 0.122458 0.109628 0.095889 0.080551 0.063259 0.041881 0.722518 0.449498 0.349104 0.297570 0.262840 0.238025 0.219605 0.204678 0.191810 0.180553 0.169647 0.158666 0.147390 0.135375 0.122532 0.109696 0.095954 0.080612 0.063312 0.041916 0.738958 0.449838 0.347642 0.295288 0.260204 0.235157 0.216527 0.201438 0.188458 0.177108 0.166177 0.155237 0.144065 0.132230 0.119633 0.107040 0.093582 0.078591 0.061694 0.040796 0.755994 0.448587 0.344574 0.291370 0.255916 0.230608 0.211726 0.196438 0.183321 0.171864 0.160914 0.150049 0.139038 0.127467 0.115230 0.103004 0.089979 0.075521 0.059242 0.039116 0.772601 0.445800 0.340097 0.286104 0.250332 0.224793 0.205669 0.190190 0.176945 0.165390 0.154442 0.143685 0.132881 0.121639 0.109842 0.098068 0.085576 0.071770 0.056248 0.037072 0.789174 0.441679 0.334375 0.279645 0.243607 0.217873 0.198526 0.182869 0.169510 0.157871 0.146949 0.136333 0.125780 0.114924 0.103637 0.092389 0.080514 0.067459 0.052811 0.034730 0.806178 0.436457 0.327592 0.272156 0.235892 0.209990 0.190433 0.174609 0.161148 0.149437 0.138559 0.128114 0.117852 0.107433 0.096720 0.086062 0.074877 0.062661 0.048986 0.032125 0.824036 0.430362 0.319933 0.263804 0.227349 0.201303 0.181546 0.165563 0.152010 0.140233 0.129416 0.119165 0.109227 0.099290 0.089205 0.079192 0.068758 0.057454 0.044836 0.029298 0.842970 0.423548 0.311559 0.254766 0.218167 0.192016 0.172084 0.155959 0.142329 0.130499 0.119755 0.109718 0.100127 0.090705 0.081287 0.071953 0.062311 0.051968 0.040462 0.026315 0.862240 0.415812 0.302478 0.245205 0.208631 0.182505 0.162490 0.146290 0.132633 0.120777 0.110128 0.100317 0.091080 0.082176 0.073427 0.064762 0.055896 0.046500 0.036089 0.023314 0.866277 0.407468 0.294406 0.237351 0.201080 0.175145 0.155195 0.139033 0.125421 0.113602 0.103059 0.093436 0.084467 0.075938 0.067666 0.059487 0.051187 0.042479 0.032872 0.021118 0.850286 0.398402 0.287524 0.231514 0.195875 0.170352 0.150684 0.134737 0.121308 0.109652 0.099275 0.089832 0.081062 0.072761 0.064747 0.056845 0.048858 0.040510 0.031324 0.020103 0.827831 0.388000 0.280103 0.225588 0.190882 0.166010 0.146830 0.131269 0.118157 0.106773 0.096637 0.087415 0.078855 0.070756 0.062944 0.055249 0.047477 0.039361 0.030435 0.019534 0.802313 0.376286 0.271864 0.219139 0.185586 0.161541 0.142993 0.127937 0.115242 0.104207 0.094372 0.085413 0.077087 0.069201 0.061587 0.054078 0.046487 0.038553 0.029819 0.019144 0.772914 0.362983 0.262688 0.212131 0.179992 0.156971 0.139209 0.124776 0.112585 0.101968 0.092480 0.083814 0.075737 0.068065 0.060636 0.053291 0.045847 0.038050 0.029450 0.018919 0.736739 0.347103 0.252194 0.204528 0.174281 0.152606 0.135843 0.122169 0.110562 0.100397 0.091262 0.082871 0.075011 0.067510 0.060216 0.052979 0.045622 0.037896 0.029355 0.018873 0.682767 0.326328 0.240580 0.197531 0.169947 0.149885 0.134117 0.121056 0.109820 0.099870 0.090850 0.082510 0.074660 0.067145 0.059825 0.052559 0.045177 0.037439 0.028915 0.018519 0.682767 0.326328 0.240580 0.197531 0.169947 0.149885 0.134117 0.121056 0.109820 0.099870 0.090850 0.082510 0.074660 0.067145 0.059825 0.052559 0.045177 0.037439 0.028915 0.018519 0.736739 0.347103 0.252194 0.204528 0.174281 0.152606 0.135843 0.122169 0.110562 0.100397 0.091262 0.082871 0.075011 0.067510 0.060216 0.052979 0.045622 0.037896 0.029355 0.018873 0.772914 0.362983 0.262688 0.212131 0.179992 0.156971 0.139209 0.124776 0.112585 0.101968 0.092480 0.083814 0.075737 0.068065 0.060636 0.053291 0.045847 0.038050 0.029450 0.018919 0.802313 0.376286 0.271864 0.219139 0.185586 0.161541 0.142993 0.127937 0.115242 0.104207 0.094372 0.085413 0.077087 0.069201 0.061587 0.054078 0.046487 0.038553 0.029819 0.019144 0.827831 0.388000 0.280103 0.225588 0.190882 0.166010 0.146830 0.131269 0.118157 0.106773 0.096637 0.087415 0.078855 0.070756 0.062944 0.055249 0.047477 0.039361 0.030435 0.019534 0.850286 0.398402 0.287524 0.231514 0.195875 0.170352 0.150684 0.134737 0.121308 0.109652 0.099275 0.089832 0.081062 0.072761 0.064747 0.056845 0.048858 0.040510 0.031324 0.020103 0.866277 0.407468 0.294406 0.237351 0.201080 0.175145 0.155195 0.139033 0.125421 0.113602 0.103059 0.093436 0.084467 0.075938 0.067666 0.059487 0.051187 0.042479 0.032872 0.021118 0.862240 0.415812 0.302478 0.245205 0.208631 0.182505 0.162490 0.146290 0.132633 0.120777 0.110128 0.100317 0.091080 0.082176 0.073427 0.064762 0.055896 0.046500 0.036089 0.023314 0.842970 0.423548 0.311559 0.254766 0.218167 0.192016 0.172084 0.155959 0.142329 0.130499 0.119755 0.109718 0.100127 0.090705 0.081287 0.071953 0.062311 0.051968 0.040462 0.026315 0.824036 0.430362 0.319933 0.263804 0.227349 0.201303 0.181546 0.165563 0.152010 0.140233 0.129416 0.119165 0.109227 0.099290 0.089205 0.079192 0.068758 0.057454 0.044836 0.029298 0.806178 0.436457 0.327592 0.272156 0.235892 0.209990 0.190433 0.174609 0.161148 0.149437 0.138559 0.128114 0.117852 0.107433 0.096720 0.086062 0.074877 0.062661 0.048986 0.032125 0.789174 0.441679 0.334375 0.279645 0.243607 0.217873 0.198526 0.182869 0.169510 0.157871 0.146949 0.136333 0.125780 0.114924 0.103637 0.092389 0.080514 0.067459 0.052811 0.034730 0.772601 0.445800 0.340097 0.286104 0.250332 0.224793 0.205669 0.190190 0.176945 0.165390 0.154442 0.143685 0.132881 0.121639 0.109842 0.098068 0.085576 0.071770 0.056248 0.037072 0.755994 0.448587 0.344574 0.291370 0.255916 0.230608 0.211726 0.196438 0.183321 0.171864 0.160914 0.150049 0.139038 0.127467 0.115230 0.103004 0.089979 0.075521 0.059242 0.039116 0.738958 0.449838 0.347642 0.295288 0.260204 0.235157 0.216527 0.201438 0.188458 0.177108 0.166177 0.155237 0.144065 0.132230 0.119633 0.107040 0.093582 0.078591 0.061694 0.040796 0.722518 0.449498 0.349104 0.297570 0.262840 0.238025 0.219605 0.204678 0.191810 0.180553 0.169647 0.158666 0.147390 0.135375 0.122532 0.109696 0.095954 0.080612 0.063312 0.041916 0.715945 0.447124 0.347621 0.296536 0.262071 0.237441 0.219160 0.204338 0.191551 0.180359 0.169500 0.158552 0.147298 0.135296 0.122458 0.109628 0.095889 0.080551 0.063259 0.041881 0.715358 0.442030 0.342997 0.292213 0.258039 0.233619 0.215468 0.200747 0.188052 0.176936 0.166177 0.155357 0.144262 0.132460 0.119862 0.107268 0.093796 0.078773 0.061843 0.040916 0.709781 0.434396 0.336355 0.286102 0.252349 0.228224 0.210269 0.195708 0.183161 0.172178 0.161578 0.150953 0.140088 0.128566 0.116295 0.104033 0.090934 0.076347 0.059919 0.039621 0.698179 0.423851 0.327535 0.278173 0.245062 0.221391 0.203753 0.189451 0.177138 0.166367 0.156001 0.145640 0.135074 0.123902 0.112030 0.100176 0.087529 0.073466 0.057639 0.038096 0.679606 0.409952 0.316219 0.268170 0.235968 0.212939 0.195766 0.181842 0.169867 0.159401 0.149352 0.139337 0.129151 0.118406 0.107012 0.095647 0.083539 0.070094 0.054976 0.036322 0.652098 0.391726 0.301657 0.255452 0.224490 0.202340 0.185812 0.172418 0.160911 0.150867 0.141247 0.131683 0.121979 0.111766 0.100958 0.090193 0.078743 0.066044 0.051782 0.034205 0.611286 0.366959 0.282120 0.238517 0.209262 0.188320 0.172695 0.160044 0.149194 0.139746 0.130722 0.121774 0.112717 0.103205 0.093157 0.083179 0.072584 0.060850 0.047696 0.031510 0.546346 0.330077 0.253182 0.213464 0.186697 0.167514 0.153224 0.141688 0.131835 0.123308 0.115202 0.107198 0.099127 0.090669 0.081754 0.072955 0.063638 0.053330 0.041806 0.027659 0.422899 0.262772 0.199920 0.166896 0.144333 0.128176 0.116294 0.106865 0.098980 0.092353 0.086161 0.080123 0.074090 0.067770 0.061103 0.054637 0.047797 0.040177 0.031650 0.021144
</DataArray><DataArray type="Float32" Name="induced_velocity" NumberOfComponents="3" format="ascii">
9.777034 0.127773 3.321777 10.103304 0.043317 0.952514 10.068991 -0.002098 0.392863 10.042120 -0.022803 0.153751 10.021677 -0.036205 0.007302 10.007441 -0.046068 -0.094220 9.997283 -0.055072 -0.176838 9.988915 -0.064960 -0.252544 9.981453 -0.076437 -0.324461 9.974399 -0.090087 -0.395759 9.966882 -0.106488 -0.467777 9.958835 -0.125707 -0.538581 9.950294 -0.147772 -0.607022 9.941348 -0.172572 -0.671191 9.932602 -0.199625 -0.727738 9.924420 -0.228722 -0.777952 9.916318 -0.260031 -0.824217 9.908541 -0.293130 -0.864019 9.901506 -0.327479 -0.895271 9.895350 -0.362673 -0.915252 9.732709 0.155933 3.823656 10.133443 0.053161 1.009156 10.092102 0.000718 0.415201 10.061499 -0.023512 0.167773 10.038214 -0.039013 0.018796 10.021761 -0.049850 -0.083237 10.009681 -0.058757 -0.165509 9.999324 -0.067436 -0.240471 9.989717 -0.076488 -0.311452 9.980369 -0.086384 -0.381726 9.970284 -0.097584 -0.452684 9.959438 -0.110057 -0.522417 9.947929 -0.123768 -0.589788 9.935902 -0.138584 -0.652886 9.924111 -0.154080 -0.708347 9.913090 -0.170158 -0.757429 9.902336 -0.187056 -0.802448 9.892158 -0.204453 -0.840738 9.883097 -0.221950 -0.869794 9.875434 -0.239121 -0.885287 9.712252 0.163812 3.992058 10.141775 0.057127 1.046189 10.099692 0.002834 0.441869 10.068569 -0.022336 0.191799 10.044819 -0.038379 0.041904 10.027989 -0.049437 -0.060431 10.015575 -0.058261 -0.142732 10.004831 -0.066537 -0.217587 9.994756 -0.074833 -0.288386 9.984855 -0.083580 -0.358432 9.974091 -0.093196 -0.429135 9.962440 -0.103609 -0.498592 9.950016 -0.114755 -0.565668 9.936977 -0.126490 -0.628450 9.924120 -0.138396 -0.683563 9.912046 -0.150400 -0.732253 9.900254 -0.162752 -0.776806 9.889071 -0.175161 -0.814488 9.879086 -0.187259 -0.842624 9.870628 -0.198605 -0.856227 9.700633 0.164138 4.033607 10.141772 0.058702 1.074688 10.101475 0.004343 0.469138 10.071128 -0.020948 0.218691 10.047813 -0.037055 0.068626 10.031252 -0.048090 -0.033786 10.019021 -0.056780 -0.116116 10.008392 -0.064787 -0.190978 9.998370 -0.072662 -0.261771 9.988471 -0.080812 -0.331805 9.977649 -0.089636 -0.402493 9.965877 -0.099047 -0.471934 9.953272 -0.108969 -0.538991 9.939992 -0.119252 -0.601747 9.926843 -0.129484 -0.656821 9.914453 -0.139604 -0.705450 9.902325 -0.149863 -0.749913 9.890792 -0.159983 -0.787448 9.880454 -0.169614 -0.815312 9.871652 -0.178312 -0.828276 9.693416 0.160997 4.014772 10.137729 0.059102 1.098831 10.100427 0.005476 0.496403 10.071490 -0.019585 0.246667 10.049043 -0.035557 0.096802 10.033056 -0.046469 -0.005562 10.021243 -0.055000 -0.087903 10.010951 -0.062780 -0.162806 10.001205 -0.070343 -0.233656 9.991541 -0.078085 -0.303758 9.980922 -0.086387 -0.374525 9.969316 -0.095155 -0.444053 9.956841 -0.104309 -0.511204 9.943650 -0.113696 -0.574059 9.930546 -0.122914 -0.629229 9.918165 -0.131905 -0.677949 9.906021 -0.140925 -0.722497 9.894444 -0.149700 -0.760104 9.884033 -0.157897 -0.788008 9.875120 -0.165078 -0.800926 9.688865 0.156074 3.962710 10.131385 0.058846 1.120453 10.097729 0.006356 0.523550 10.070549 -0.018307 0.275130 10.049209 -0.034057 0.125676 10.033961 -0.044807 0.023433 10.022695 -0.053173 -0.058903 10.012854 -0.060750 -0.133858 10.003501 -0.068055 -0.204793 9.994191 -0.075471 -0.275000 9.983906 -0.083365 -0.345892 9.972612 -0.091640 -0.415558 9.960422 -0.100213 -0.482860 9.947487 -0.108932 -0.545875 9.934597 -0.117400 -0.601211 9.922391 -0.125569 -0.650100 9.910396 -0.133690 -0.694826 9.898934 -0.141502 -0.732621 9.888596 -0.148681 -0.760732 9.879700 -0.154803 -0.773919 9.686199 0.150191 3.890015 10.123526 0.058207 1.140444 10.093893 0.007070 0.550567 10.068680 -0.017120 0.303847 10.048591 -0.032619 0.154939 10.034183 -0.043202 0.052866 10.023539 -0.051418 -0.029450 10.014219 -0.058819 -0.104463 10.005327 -0.065904 -0.175497 9.996443 -0.073042 -0.245831 9.986571 -0.080589 -0.316872 9.975675 -0.088443 -0.386707 9.963865 -0.096519 -0.454192 9.951287 -0.104665 -0.517406 9.938714 -0.112492 -0.572950 9.926785 -0.119958 -0.622058 9.915039 -0.127315 -0.667019 9.903789 -0.134307 -0.705076 9.893617 -0.140625 -0.733499 9.884819 -0.145865 -0.747150 9.685017 0.143907 3.803258 10.114516 0.057456 1.159295 10.089121 0.007786 0.577476 10.065994 -0.015914 0.332722 10.047240 -0.031177 0.184455 10.033728 -0.041627 0.082591 10.023751 -0.049738 0.000304 10.014997 -0.057013 -0.074768 10.006614 -0.063930 -0.145912 9.998209 -0.070845 -0.216387 9.988814 -0.078095 -0.287597 9.978387 -0.085573 -0.357622 9.967036 -0.093191 -0.425317 9.954899 -0.100796 -0.488758 9.942733 -0.108008 -0.544545 9.931168 -0.114789 -0.593910 9.919757 -0.121391 -0.639154 9.908805 -0.127567 -0.677531 9.898877 -0.133025 -0.706348 9.890247 -0.137379 -0.720618 9.685003 0.138456 3.708553 10.104618 0.057703 1.177438 10.083399 0.009544 0.604226 10.062294 -0.013733 0.361556 10.044831 -0.028882 0.213959 10.032191 -0.039355 0.112301 10.022875 -0.047532 0.030032 10.014707 -0.054858 -0.045112 10.006880 -0.061778 -0.116377 9.999025 -0.068621 -0.187001 9.990203 -0.075700 -0.258379 9.980367 -0.082891 -0.328588 9.969616 -0.090094 -0.396479 9.958078 -0.097151 -0.460124 9.946481 -0.103684 -0.516124 9.935440 -0.109665 -0.565712 9.924519 -0.115344 -0.611201 9.914008 -0.120488 -0.649866 9.904450 -0.124828 -0.679065 9.896091 -0.128014 -0.694026 9.703095 0.141087 3.595326 10.093572 0.060683 1.145367 10.074409 0.012454 0.598132 10.055159 -0.011348 0.367103 10.039206 -0.026999 0.226821 10.027649 -0.037926 0.130290 10.019141 -0.046502 0.052212 10.011711 -0.054147 -0.019087 10.004622 -0.061284 -0.086707 9.997541 -0.068225 -0.153731 9.989614 -0.075235 -0.221494 9.980792 -0.082158 -0.288179 9.971158 -0.088862 -0.352698 9.960820 -0.095165 -0.413226 9.950427 -0.100692 -0.466530 9.940535 -0.105428 -0.513771 9.930751 -0.109618 -0.557147 9.921325 -0.113045 -0.594055 9.912740 -0.115476 -0.621963 9.905208 -0.116612 -0.636273 9.737319 0.141592 3.459735 10.080200 0.052329 1.059205 10.061496 0.007251 0.556582 10.044304 -0.014674 0.347255 10.030401 -0.029024 0.221237 10.020420 -0.039080 0.134971 10.013105 -0.047005 0.065460 10.006750 -0.054054 0.002132 10.000718 -0.060592 -0.057852 9.994722 -0.066877 -0.117280 9.988048 -0.073121 -0.177367 9.980650 -0.079160 -0.236509 9.972592 -0.084863 -0.293750 9.963960 -0.090054 -0.347468 9.955279 -0.094400 -0.394776 9.947015 -0.097895 -0.436689 9.938848 -0.100749 -0.475148 9.930981 -0.102775 -0.507793 9.923809 -0.103781 -0.532258 9.917511 -0.103494 -0.544077 9.770924 0.140760 3.323408 10.066620 0.042184 0.968311 10.048679 0.000686 0.511834 10.033513 -0.019093 0.325027 10.021557 -0.031907 0.213833 10.013052 -0.040866 0.138244 10.006852 -0.047917 0.077650 10.001515 -0.054160 0.022628 9.996499 -0.059907 -0.029390 9.991560 -0.065380 -0.080878 9.986116 -0.070743 -0.132919 9.980121 -0.075846 -0.184136 9.973625 -0.080568 -0.233704 9.966684 -0.084748 -0.280212 9.959710 -0.088104 -0.321140 9.953074 -0.090636 -0.357352 9.946526 -0.092518 -0.390520 9.940216 -0.093592 -0.418542 9.934455 -0.093697 -0.439241 9.929383 -0.092576 -0.448318 9.802347 0.139174 3.188285 10.053073 0.031832 0.877657 10.036463 -0.005906 0.467162 10.023376 -0.023485 0.302790 10.013302 -0.034733 0.206371 10.006196 -0.042565 0.141431 10.001041 -0.048713 0.089733 9.996647 -0.054124 0.043003 9.992565 -0.059069 -0.001059 9.988594 -0.063735 -0.044611 9.984270 -0.068249 -0.088606 9.979552 -0.072479 -0.131888 9.974472 -0.076316 -0.173761 9.969069 -0.079623 -0.213027 9.963648 -0.082163 -0.247533 9.958498 -0.083943 -0.277996 9.953424 -0.085103 -0.305818 9.948535 -0.085512 -0.329157 9.944062 -0.085032 -0.346033 9.940110 -0.083425 -0.352322 9.831563 0.136994 3.055339 10.039598 0.021396 0.787344 10.024908 -0.012397 0.422574 10.013982 -0.027720 0.280532 10.005751 -0.037376 0.198835 9.999990 -0.044061 0.144515 9.995826 -0.049291 0.101698 9.992314 -0.053866 0.063250 9.989090 -0.058019 0.027140 9.985995 -0.061905 -0.008476 9.982674 -0.065621 -0.044417 9.979091 -0.069053 -0.079748 9.975265 -0.072110 -0.113903 9.971218 -0.074676 -0.145894 9.967166 -0.076562 -0.173937 9.963323 -0.077775 -0.198606 9.959547 -0.078427 -0.221028 9.955907 -0.078408 -0.239626 9.952569 -0.077604 -0.252616 9.949601 -0.075788 -0.256051 9.858592 0.134305 2.925603 10.026215 0.010883 0.697467 10.014050 -0.018788 0.378068 10.005375 -0.031798 0.258235 9.998958 -0.039833 0.191202 9.994493 -0.045351 0.147473 9.991276 -0.049645 0.113521 9.988586 -0.053379 0.083349 9.986148 -0.056747 0.055189 9.983840 -0.059877 0.027513 9.981405 -0.062840 -0.000364 9.978812 -0.065547 -0.027726 9.976071 -0.067921 -0.054136 9.973192 -0.069871 -0.078817 9.970317 -0.071251 -0.100355 9.967597 -0.072070 -0.119180 9.964931 -0.072410 -0.136148 9.962359 -0.072182 -0.149943 9.959990 -0.071290 -0.158980 9.957861 -0.069520 -0.159480 9.883530 0.131127 2.799828 10.012943 0.000239 0.608088 10.003928 -0.025134 0.333630 9.997609 -0.035767 0.235867 9.992986 -0.042145 0.183437 9.989776 -0.046465 0.150271 9.987461 -0.049799 0.125171 9.985538 -0.052674 0.103270 9.983813 -0.055253 0.083063 9.982202 -0.057638 0.063336 9.980534 -0.059882 0.043538 9.978784 -0.061918 0.024167 9.976957 -0.063691 0.005531 9.975055 -0.065132 -0.011802 9.973161 -0.066137 -0.026790 9.971372 -0.066714 -0.039721 9.969623 -0.066916 -0.051176 9.967933 -0.066675 -0.060103 9.966361 -0.065911 -0.065114 9.964919 -0.064415 -0.062580 9.906630 0.127290 2.678059 9.999887 -0.010734 0.519185 9.994678 -0.031602 0.289200 9.990834 -0.039766 0.213364 9.987991 -0.044425 0.175476 9.985993 -0.047490 0.152848 9.984532 -0.049811 0.136595 9.983312 -0.051785 0.122969 9.982220 -0.053546 0.110727 9.981207 -0.055172 0.098968 9.980176 -0.056701 0.087276 9.979113 -0.058094 0.075929 9.978019 -0.059316 0.065110 9.976893 -0.060323 0.055175 9.975774 -0.061049 0.046794 9.974715 -0.061500 0.039817 9.973682 -0.061703 0.033944 9.972677 -0.061606 0.029961 9.971726 -0.061141 0.029067 9.970812 -0.060105 0.034760 9.928855 0.121346 2.557670 9.987823 -0.023032 0.430446 9.987045 -0.038902 0.244615 9.985723 -0.044307 0.190652 9.984562 -0.047042 0.167335 9.983657 -0.048696 0.155315 9.982934 -0.049874 0.148002 9.982295 -0.050837 0.142762 9.981706 -0.051684 0.138611 9.981149 -0.052469 0.134957 9.980592 -0.053216 0.131519 9.980027 -0.053913 0.128356 9.979456 -0.054545 0.125522 9.978875 -0.055096 0.123162 9.978297 -0.055537 0.121571 9.977738 -0.055868 0.120741 9.977187 -0.056096 0.120647 9.976640 -0.056187 0.121818 9.976098 -0.056084 0.125265 9.975524 -0.055586 0.134398 9.937723 0.100900 2.447791 9.980293 -0.028649 0.388481 9.983077 -0.039380 0.232183 9.983680 -0.042661 0.191998 9.983749 -0.044220 0.177571 9.983636 -0.045149 0.171908 9.983446 -0.045803 0.169890 9.983214 -0.046327 0.169588 9.982959 -0.046787 0.170188 9.982689 -0.047220 0.171293 9.982405 -0.047643 0.172706 9.982107 -0.048064 0.174360 9.981798 -0.048485 0.176230 9.981476 -0.048904 0.178340 9.981144 -0.049317 0.180758 9.980802 -0.049717 0.183555 9.980448 -0.050096 0.18