<?xml version='1.0' encoding='utf-8'?>
<VTKFile type="UnstructuredGrid" version="0.1" byte_order="LittleEndian"><UnstructuredGrid><Piece NumberOfPoints="2500" NumberOfCells="2401"><Points><DataArray type="Float32" Name="Points" NumberOfComponents="3" format="ascii">
3.799996 -11.000000 0.799879 3.801519 -11.000000 0.800288 3.804026 -11.000000 0.800892 3.807512 -11.000000 0.801608 3.811970 -11.000000 0.802351 3.817397 -11.000000 0.803069 3.823788 -11.000000 0.803779 3.831138 -11.000000 0.804506 3.839440 -11.000000 0.805229 3.848686 -11.000000 0.805931 3.858867 -11.000000 0.806591 3.869973 -11.000000 0.807194 3.881996 -11.000000 0.807787 3.894922 -11.000000 0.808339 3.908740 -11.000000 0.808827 3.923435 -11.000000 0.809244 3.938994 -11.000000 0.809602 3.955401 -11.000000 0.809880 3.972641 -11.000000 0.810086 3.990697 -11.000000 0.810222 4.009552 -11.000000 0.810281 4.029187 -11.000000 0.810271 4.049583 -11.000000 0.810183 4.070720 -11.000000 0.810024 4.092578 -11.000000 0.809782 4.115134 -11.000000 0.809457 4.138366 -11.000000 0.809043 4.162252 -11.000000 0.808528 4.186768 -11.000000 0.807913 4.211889 -11.000000 0.807192 4.237590 -11.000000 0.806353 4.263845 -11.000000 0.805398 4.290629 -11.000000 0.804312 4.317915 -11.000000 0.803088 4.345675 -11.000000 0.801721 4.373882 -11.000000 0.800212 4.402507 -11.000000 0.798553 4.431523 -11.000000 0.796744 4.460899 -11.000000 0.794785 4.490608 -11.000000 0.792680 4.520621 -11.000000 0.790444 4.550906 -11.000000 0.788080 4.581435 -11.000000 0.785586 4.612177 -11.000000 0.782964 4.643101 -11.000000 0.780217 4.674177 -11.000000 0.777357 4.705375 -11.000000 0.774396 4.736663 -11.000000 0.771337 4.768009 -11.000000 0.768156 4.799383 -11.000000 0.764874 3.586731 -10.551020 0.766204 3.588279 -10.551020 0.766624 3.590826 -10.551020 0.767246 3.594368 -10.551020 0.767984 3.598900 -10.551020 0.768752 3.604415 -10.551020 0.769499 3.610911 -10.551020 0.770240 3.618383 -10.551020 0.771002 3.626823 -10.551020 0.771761 3.636222 -10.551020 0.772503 3.646573 -10.551020 0.773205 3.657864 -10.551020 0.773851 3.670087 -10.551020 0.774490 3.683230 -10.551020 0.775090 3.697278 -10.551020 0.775627 3.712219 -10.551020 0.776095 3.728039 -10.551020 0.776506 3.744722 -10.551020 0.776838 3.762251 -10.551020 0.777098 3.780611 -10.551020 0.777291 3.799783 -10.551020 0.777407 3.819748 -10.551020 0.777455 3.840488 -10.551020 0.777426 3.861982 -10.551020 0.777328 3.884208 -10.551020 0.777147 3.907145 -10.551020 0.776884 3.930770 -10.551020 0.776533 3.955059 -10.551020 0.776080 3.979989 -10.551020 0.775528 4.005535 -10.551020 0.774870 4.031671 -10.551020 0.774094 4.058372 -10.551020 0.773201 4.085610 -10.551020 0.772177 4.113358 -10.551020 0.771014 4.141590 -10.551020 0.769707 4.170276 -10.551020 0.768256 4.199388 -10.551020 0.766656 4.228897 -10.551020 0.764903 4.258774 -10.551020 0.762998 4.288989 -10.551020 0.760947 4.319514 -10.551020 0.758763 4.350316 -10.551020 0.756450 4.381366 -10.551020 0.754005 4.412633 -10.551020 0.751430 4.444086 -10.551020 0.748730 4.475694 -10.551020 0.745914 4.507426 -10.551020 0.742996 4.539249 -10.551020 0.739980 4.571133 -10.551020 0.736839 4.603045 -10.551020 0.733596 3.373466 -10.102041 0.732528 3.375038 -10.102041 0.732960 3.377626 -10.102041 0.733599 3.381224 -10.102041 0.734360 3.385828 -10.102041 0.735155 3.391433 -10.102041 0.735931 3.398035 -10.102041 0.736704 3.405628 -10.102041 0.737500 3.414205 -10.102041 0.738297 3.423758 -10.102041 0.739079 3.434278 -10.102041 0.739824 3.445754 -10.102041 0.740514 3.458177 -10.102041 0.741200 3.471536 -10.102041 0.741850 3.485815 -10.102041 0.742438 3.501002 -10.102041 0.742958 3.517083 -10.102041 0.743423 3.534040 -10.102041 0.743810 3.551859 -10.102041 0.744128 3.570522 -10.102041 0.744378 3.590011 -10.102041 0.744553 3.610307 -10.102041 0.744662 3.631390 -10.102041 0.744695 3.653240 -10.102041 0.744659 3.675834 -10.102041 0.744541 3.699152 -10.102041 0.744343 3.723169 -10.102041 0.744056 3.747862 -10.102041 0.743669 3.773206 -10.102041 0.743182 3.799177 -10.102041 0.742589 3.825748 -10.102041 0.741878 3.852893 -10.102041 0.741051 3.880585 -10.102041 0.740091 3.908796 -10.102041 0.738991 3.937499 -10.102041 0.737747 3.966664 -10.102041 0.736358 3.996263 -10.102041 0.734818 4.026266 -10.102041 0.733124 4.056643 -10.102041 0.731277 4.087365 -10.102041 0.729282 4.118401 -10.102041 0.727154 4.149720 -10.102041 0.724894 4.181292 -10.102041 0.722502 4.213084 -10.102041 0.719977 4.245066 -10.102041 0.717326 4.277205 -10.102041 0.714559 4.309471 -10.102041 0.711687 4.341830 -10.102041 0.708716 4.374251 -10.102041 0.705618 4.406701 -10.102041 0.702416 3.160201 -9.653061 0.698853 3.161798 -9.653061 0.699296 3.164425 -9.653061 0.699954 3.168080 -9.653061 0.700738 3.172757 -9.653061 0.701560 3.178451 -9.653061 0.702364 3.185157 -9.653061 0.703169 3.192871 -9.653061 0.704002 3.201586 -9.653061 0.704838 3.211292 -9.653061 0.705661 3.221981 -9.653061 0.706449 3.233642 -9.653061 0.707185 3.246266 -9.653061 0.707919 3.259840 -9.653061 0.708619 3.274350 -9.653061 0.709259 3.289783 -9.653061 0.709833 3.306124 -9.653061 0.710354 3.323356 -9.653061 0.710798 3.341465 -9.653061 0.711174 3.360431 -9.653061 0.711484 3.380236 -9.653061 0.711720 3.400863 -9.653061 0.711892 3.422289 -9.653061 0.711988 3.444494 -9.653061 0.712016 3.467457 -9.653061 0.711964 3.491155 -9.653061 0.711832 3.515564 -9.653061 0.711612 3.540660 -9.653061 0.711293 3.566419 -9.653061 0.710874 3.592814 -9.653061 0.710349 3.619820 -9.653061 0.709706 3.647410 -9.653061 0.708946 3.675555 -9.653061 0.708053 3.704229 -9.653061 0.707020 3.733403 -9.653061 0.705841 3.763047 -9.653061 0.704517 3.793133 -9.653061 0.703039 3.823629 -9.653061 0.701408 3.854507 -9.653061 0.699621 3.885735 -9.653061 0.697686 3.917282 -9.653061 0.695615 3.949119 -9.653061 0.693412 3.981211 -9.653061 0.691075 4.013529 -9.653061 0.688605 4.046039 -9.653061 0.686006 4.078710 -9.653061 0.683289 4.111510 -9.653061 0.680467 4.144405 -9.653061 0.677545 4.177363 -9.653061 0.674493 4.210351 -9.653061 0.671336 2.946936 -9.204082 0.665177 2.948557 -9.204082 0.665632 2.951225 -9.204082 0.666309 2.954936 -9.204082 0.667116 2.959685 -9.204082 0.667965 2.965468 -9.204082 0.668799 2.972279 -9.204082 0.669638 2.980115 -9.204082 0.670506 2.988966 -9.204082 0.671382 2.998825 -9.204082 0.672247 3.009683 -9.204082 0.673079 3.021529 -9.204082 0.673862 3.034353 -9.204082 0.674646 3.048142 -9.204082 0.675397 3.062883 -9.204082 0.676091 3.078561 -9.204082 0.676721 3.095162 -9.204082 0.677298 3.112670 -9.204082 0.677801 3.131067 -9.204082 0.678237 3.150336 -9.204082 0.678609 3.170459 -9.204082 0.678907 3.191415 -9.204082 0.679143 3.213184 -9.204082 0.679305 3.235745 -9.204082 0.679400 3.259076 -9.204082 0.679416 3.283154 -9.204082 0.679353 3.307955 -9.204082 0.679202 3.333454 -9.204082 0.678952 3.359627 -9.204082 0.678604 3.386446 -9.204082 0.678149 3.413887 -9.204082 0.677576 3.441921 -9.204082 0.676886 3.470520 -9.204082 0.676063 3.499657 -9.204082 0.675099 3.529301 -9.204082 0.673989 3.559425 -9.204082 0.672732 3.589997 -9.204082 0.671321 3.620987 -9.204082 0.669754 3.652364 -9.204082 0.668031 3.684098 -9.204082 0.666158 3.716158 -9.204082 0.664148 3.748511 -9.204082 0.662005 3.781125 -9.204082 0.659726 3.813967 -9.204082 0.657313 3.847006 -9.204082 0.654770 3.880209 -9.204082 0.652107 3.913542 -9.204082 0.649338 3.946973 -9.204082 0.646466 3.980468 -9.204082 0.643464 4.013994 -9.204082 0.640355 2.733671 -8.755102 0.631501 2.735316 -8.755102 0.631969 2.738024 -8.755102 0.632664 2.741791 -8.755102 0.633495 2.746613 -8.755102 0.634371 2.752484 -8.755102 0.635236 2.759401 -8.755102 0.636108 2.767357 -8.755102 0.637014 2.776345 -8.755102 0.637929 2.786358 -8.755102 0.638837 2.797384 -8.755102 0.639716 2.809414 -8.755102 0.640546 2.822438 -8.755102 0.641380 2.836443 -8.755102 0.642185 2.851414 -8.755102 0.642934 2.867338 -8.755102 0.643620 2.884199 -8.755102 0.644256 2.901981 -8.755102 0.644819 2.920667 -8.755102 0.645317 2.940239 -8.755102 0.645752 2.960678 -8.755102 0.646116 2.981964 -8.755102 0.646418 3.004076 -8.755102 0.646647 3.026992 -8.755102 0.646811 3.050691 -8.755102 0.646897 3.075149 -8.755102 0.646904 3.100341 -8.755102 0.646826 3.126243 -8.755102 0.646648 3.152830 -8.755102 0.646372 3.180074 -8.755102 0.645990 3.207949 -8.755102 0.645490 3.236427 -8.755102 0.644873 3.265480 -8.755102 0.644122 3.295079 -8.755102 0.643230 3.325194 -8.755102 0.642191 3.355796 -8.755102 0.641004 3.386854 -8.755102 0.639662 3.418338 -8.755102 0.638163 3.450215 -8.755102 0.636506 3.482456 -8.755102 0.634698 3.515026 -8.755102 0.632753 3.547896 -8.755102 0.630672 3.581031 -8.755102 0.628455 3.614399 -8.755102 0.626101 3.647967 -8.755102 0.623617 3.681701 -8.755102 0.621011 3.715568 -8.755102 0.618298 3.749535 -8.755102 0.615481 3.783567 -8.755102 0.612531 3.817631 -8.755102 0.609473 2.520406 -8.306122 0.597826 2.522075 -8.306122 0.598305 2.524823 -8.306122 0.599019 2.528646 -8.306122 0.599875 2.533540 -8.306122 0.600779 2.539500 -8.306122 0.601675 2.546521 -8.306122 0.602581 2.554598 -8.306122 0.603524 2.563724 -8.306122 0.604481 2.573889 -8.306122 0.605433 2.585084 -8.306122 0.606358 2.597298 -8.306122 0.607237 2.610522 -8.306122 0.608123 2.624741 -8.306122 0.608982 2.639943 -8.306122 0.609787 2.656112 -8.306122 0.610531 2.673233 -8.306122 0.611228 2.691289 -8.306122 0.611853 2.710264 -8.306122 0.612414 2.730138 -8.306122 0.612914 2.750893 -8.306122 0.613344 2.772509 -8.306122 0.613715 2.794963 -8.306122 0.614014 2.818236 -8.306122 0.614249 2.842302 -8.306122 0.614407 2.867139 -8.306122 0.614487 2.892723 -8.306122 0.614482 2.919028 -8.306122 0.614379 2.946028 -8.306122 0.614178 2.973696 -8.306122 0.613872 3.002005 -8.306122 0.613447 3.030927 -8.306122 0.612905 3.060434 -8.306122 0.612230 3.090495 -8.306122 0.611412 3.121081 -8.306122 0.610446 3.152161 -8.306122 0.609332 3.183706 -8.306122 0.608062 3.215682 -8.306122 0.606634 3.248060 -8.306122 0.605047 3.280806 -8.306122 0.603307 3.313888 -8.306122 0.601428 3.347274 -8.306122 0.599414 3.38093
[...]
</DataArray></Cells><CellData><DataArray type="Float32" Name="gamma" format="ascii">
0.864309 0.644060 0.631939 0.645433 0.659629 0.665653 0.670003 0.679305 0.688126 0.695886 0.700268 0.696759 0.700990 0.704131 0.703304 0.698521 0.695503 0.687830 0.679308 0.670885 0.660064 0.650729 0.639549 0.630343 0.620029 0.610458 0.601336 0.590734 0.580775 0.571302 0.560178 0.550453 0.539250 0.526644 0.512412 0.497669 0.481047 0.462699 0.441833 0.418886 0.396233 0.373107 0.348043 0.320325 0.289479 0.255531 0.218844 0.177859 0.116681 1.078862 0.797459 0.774941 0.784780 0.797742 0.803849 0.809127 0.819951 0.830729 0.840825 0.847858 0.847270 0.854854 0.861606 0.864583 0.863763 0.864895 0.861401 0.857075 0.852802 0.845961 0.840413 0.832684 0.826574 0.818872 0.811392 0.803773 0.794002 0.784195 0.774163 0.761704 0.749906 0.735831 0.719551 0.700835 0.680824 0.658130 0.632919 0.604393 0.573007 0.541187 0.508154 0.472413 0.433211 0.390013 0.342726 0.291462 0.234034 0.152520 1.167317 0.860953 0.834433 0.843029 0.855650 0.861823 0.867461 0.878914 0.890472 0.901473 0.909489 0.909905 0.918733 0.926819 0.931170 0.931759 0.934412 0.932433 0.929666 0.926988 0.921720 0.917762 0.911562 0.906959 0.900664 0.894495 0.888061 0.879288 0.870304 0.860888 0.848780 0.837092 0.822817 0.806002 0.786395 0.765134 0.740790 0.713516 0.682485 0.648142 0.612939 0.576067 0.535980 0.491880 0.443168 0.389660 0.331301 0.265501 0.173019 1.205259 0.888494 0.860620 0.869050 0.881825 0.888221 0.894187 0.906131 0.918247 0.929856 0.938489 0.939467 0.949043 0.957914 0.963038 0.964387 0.967874 0.966691 0.964738 0.962899 0.958443 0.955326 0.949929 0.946143 0.940616 0.935185 0.929444 0.921273 0.912823 0.903862 0.892078 0.880626 0.866436 0.849546 0.829689 0.808008 0.783042 0.754935 0.722833 0.687177 0.650448 0.611808 0.569668 0.523194 0.471745 0.415082 0.353060 0.282862 0.184422 1.217020 0.897422 0.869591 0.878448 0.891677 0.898429 0.904766 0.917201 0.929837 0.941987 0.951145 0.952560 0.962742 0.972236 0.977953 0.979866 0.983975 0.983364 0.981992 0.980753 0.976870 0.974355 0.969529 0.966338 0.961373 0.956494 0.951283 0.943583 0.935572 0.927009 0.915539 0.904364 0.890356 0.873551 0.853669 0.831870 0.806659 0.778177 0.745553 0.709227 0.671712 0.632150 0.588918 0.541155 0.488194 0.429769 0.365690 0.293010 0.191113 1.212575 0.894840 0.867934 0.877605 0.891497 0.898717 0.905486 0.918448 0.931627 0.944327 0.954005 0.955842 0.966605 0.976692 0.982966 0.985398 0.990081 0.989992 0.989148 0.988454 0.985089 0.983123 0.978818 0.976179 0.971738 0.967384 0.962686 0.955452 0.947891 0.939753 0.928646 0.917814 0.904082 0.887479 0.867720 0.845978 0.820733 0.792125 0.759265 0.722598 0.684673 0.644614 0.600769 0.552259 0.498400 0.438912 0.373589 0.299407 0.195345 1.195740 0.883469 0.858179 0.868982 0.883726 0.891530 0.898813 0.912376 0.926160 0.939468 0.949723 0.952034 0.963430 0.974163 0.981045 0.984049 0.989362 0.989848 0.989588 0.989498 0.986711 0.985359 0.981641 0.979623 0.975780 0.972027 0.967924 0.961241 0.954221 0.946605 0.935961 0.925583 0.912241 0.895965 0.876461 0.854919 0.829795 0.801227 0.768311 0.731499 0.693378 0.653057 0.608856 0.559883 0.505442 0.445250 0.379095 0.303906 0.198330 1.165161 0.862377 0.839502 0.851834 0.867692 0.876277 0.884243 0.898572 0.913131 0.927225 0.938241 0.941213 0.953442 0.965029 0.972739 0.976542 0.982719 0.984025 0.984599 0.985368 0.983420 0.982945 0.980081 0.978951 0.975974 0.973088 0.969843 0.963972 0.957746 0.950900 0.940960 0.931266 0.918536 0.902795 0.883744 0.862586 0.837751 0.809376 0.776543 0.739708 0.701497 0.661004 0.616524 0.567152 0.512183 0.451332 0.384388 0.308236 0.201202 1.118002 0.829856 0.810691 0.825362 0.842911 0.852653 0.861607 0.877034 0.892711 0.907942 0.920072 0.924026 0.937462 0.950292 0.959212 0.964191 0.971628 0.974136 0.975931 0.977955 0.977237 0.978041 0.976430 0.976602 0.974902 0.973305 0.971346 0.966712 0.961713 0.956075 0.947273 0.938704 0.927017 0.912232 0.894035 0.873646 0.849454 0.821591 0.789110 0.752466 0.714326 0.673756 0.629003 0.579137 0.523430 0.461584 0.393374 0.315605 0.206112 1.126907 0.838301 0.820854 0.837319 0.855972 0.865731 0.874229 0.889314 0.904566 0.919276 0.930706 0.933550 0.946145 0.958100 0.966004 0.969832 0.976221 0.977562 0.978224 0.979198 0.977433 0.977340 0.974871 0.974361 0.972049 0.969975 0.967661 0.962725 0.957556 0.951867 0.943058 0.934634 0.923132 0.908577 0.890649 0.870605 0.846780 0.819310 0.787218 0.750980 0.713346 0.673338 0.629140 0.579784 0.524517 0.463035 0.395124 0.317541 0.207625 1.195855 0.885438 0.861812 0.873975 0.889349 0.896841 0.903333 0.916053 0.928989 0.941445 0.950860 0.952274 0.962644 0.972371 0.978288 0.980355 0.984701 0.984301 0.983183 0.982264 0.978732 0.976661 0.972323 0.969723 0.965398 0.961237 0.956806 0.949914 0.942767 0.935107 0.924539 0.914297 0.901191 0.885245 0.866164 0.845107 0.820543 0.792595 0.760365 0.724296 0.686922 0.647342 0.603881 0.555645 0.501932 0.442444 0.376943 0.302334 0.197414 1.247131 0.919515 0.890076 0.897766 0.909643 0.914768 0.919176 0.929376 0.939847 0.949920 0.957251 0.957304 0.965435 0.972961 0.977009 0.977530 0.980064 0.978259 0.975749 0.973363 0.968556 0.965008 0.959348 0.955193 0.949417 0.943722 0.937718 0.929427 0.920842 0.911729 0.899930 0.888363 0.874151 0.857315 0.837591 0.816026 0.791236 0.763333 0.731503 0.696144 0.659537 0.620858 0.578582 0.531878 0.480081 0.422864 0.359912 0.288222 0.188079 1.293305 0.949426 0.913821 0.916528 0.924478 0.926996 0.929130 0.936539 0.944271 0.951691 0.956706 0.955276 0.960928 0.966021 0.968016 0.966860 0.967427 0.964128 0.960156 0.956236 0.950133 0.945079 0.938110 0.932404 0.925212 0.918031 0.910517 0.900930 0.891022 0.880585 0.867724 0.855000 0.839884 0.822395 0.802297 0.780509 0.755809 0.728292 0.697238 0.662988 0.627537 0.590145 0.549449 0.504692 0.455241 0.400737 0.340772 0.272438 0.177688 1.338707 0.978232 0.935860 0.932959 0.936491 0.936130 0.935783 0.940116 0.944825 0.949312 0.951769 0.948725 0.951648 0.954062 0.953802 0.950815 0.949230 0.944311 0.938757 0.933184 0.925697 0.919031 0.910677 0.903323 0.894642 0.885901 0.876807 0.865889 0.854626 0.842842 0.828932 0.815061 0.799087 0.781023 0.760667 0.738791 0.714356 0.687435 0.657411 0.624562 0.590560 0.554759 0.515980 0.473540 0.426846 0.375501 0.318995 0.254528 0.165921 1.385642 1.007558 0.957684 0.948494 0.947086 0.943557 0.940513 0.941482 0.942881 0.944157 0.943814 0.939030 0.938978 0.938466 0.935753 0.930785 0.926864 0.920198 0.912944 0.905593 0.896628 0.888234 0.878406 0.869290 0.859027 0.848627 0.837856 0.825537 0.812850 0.799653 0.784662 0.769604 0.752763 0.734146 0.713588 0.691697 0.667638 0.641459 0.612654 0.581431 0.549108 0.515140 0.478549 0.438740 0.395159 0.347368 0.294742 0.234606 0.152845 1.435564 1.038430 0.980238 0.964039 0.957152 0.950163 0.944207 0.941528 0.939337 0.937129 0.933756 0.927115 0.923855 0.920189 0.914839 0.907757 0.901335 0.892817 0.883764 0.874530 0.864013 0.853797 0.842425 0.831452 0.819529 0.807386 0.794852 0.781070 0.766896 0.752222 0.736114 0.719820 0.702091 0.682926 0.662197 0.640339 0.616732 0.591399 0.563957 0.534536 0.504065 0.472113 0.437920 0.400983 0.360796 0.316870 0.268459 0.213017 0.138679 1.488962 1.071187 1.003832 0.979900 0.966998 0.956265 0.947197 0.940605 0.934570 0.928638 0.922039 0.913467 0.906814 0.899819 0.891711 0.882447 0.873431 0.863030 0.852159 0.841023 0.828967 0.816922 0.804024 0.791187 0.777612 0.763725 0.749421 0.734189 0.718529 0.702373 0.685161 0.667623 0.649013 0.629320 0.608457 0.586665 0.563564 0.539146 0.513159 0.485649 0.457123 0.427273 0.395576 0.361630 0.324979 0.285078 0.241042 0.190458 0.123871 1.536714 1.099891 1.023687 0.992204 0.973450 0.959136 0.947134 0.936833 0.927164 0.917728 0.908125 0.897836 0.888051 0.878003 0.867411 0.856240 0.844925 0.832929 0.820533 0.807795 0.794494 0.780921 0.766788 0.752383 0.737438 0.722083 0.706273 0.689834 0.672917 0.655487 0.637353 0.618733 0.599371 0.579247 0.558311 0.536617 0.514013 0.490463 0.465846 0.440124 0.413394 0.385469 0.356060 0.324863 0.291470 0.255287 0.215292 0.169199 0.109887 1.540195 1.099789 1.020360 0.985727 0.964485 0.948716 0.935551 0.923706 0.912526 0.901639 0.890821 0.879928 0.868864 0.857563 0.845978 0.834072 0.821820 0.809199 0.796194 0.782788 0.768970 0.754729 0.740052 0.724931 0.709355 0.693314 0.676798 0.659793 0.642288 0.624269 0.605720 0.586623 0.566958 0.546701 0.525825 0.504299 0.482084 0.459134 0.435392 0.410786 0.385222 0.358573 0.330666 0.301250 0.269950 0.236161 0.198817 0.155741 0.101047 1.503280 1.073438 0.995924 0.962136 0.941422 0.926055 0.913231 0.901700 0.890819 0.880225 0.869694 0.859086 0.848302 0.837274 0.825951 0.814297 0.802281 0.789881 0.777080 0.763862 0.750217 0.736134 0.721606 0.706625 0.691185 0.675277 0.658897 0.642035 0.624684 0.606834 0.588475 0.569594 0.550175 0.530200 0.509649 0.488494 0.466703 0.444234 0.421034 0.397038 0.372153 0.346261 0.319192 0.290705 0.260436 0.227797 0.191758 0.150210 0.097466 1.460488 1.042894 0.967605 0.934803 0.914709 0.899818 0.887406 0.876259 0.865753 0.855534 0.845388 0.835175 0.824799 0.814193 0.803307 0.792101 0.780546 0.768619 0.756299 0.743571 0.730422 0.716841 0.702818 0.688346 0.673415 0.658020 0.642151 0.625802 0.608964 0.591628 0.573784 0.555420 0.536523 0.517074 0.497056 0.476442 0.455202 0.433297 0.410677 0.387277 0.363011 0.337762 0.311366 0.283587 0.254069 0.222240 0.187093 0.146568 0.095112 1.411590 1.008005 0.935274 0.903622 0.884267 0.869956 0.858059 0.847402 0.837383 0.827662 0.818032 0.808357 0.798544 0.788527 0.778256 0.767691 0.756802 0.745562 0.733950 0.721948 0.709541 0.696715 0.683457 0.669756 0.655600 0.640980 0.625885 0.610303 0.594225 0.577639 0.560533 0.542893 0.524705 0.505950 0.486608 0.466655 0.446061 0.424786 0.402783 0.379988 0.356316 0.331655 0.305842 0.278648 0.249723 0.218504 0.184000 0.144185 0.093590 1.353286 0.966430 0.896788 0.866558 0.848150 0.834612 0.823425 0.813467 0.804162 0.795187 0.786343 0.777500 0.768567 0.759480 0.750184 0.740638 0.730806 0.720656 0.710162 0.699299 0.688043 0.676373 0.664269 0.651714 0.638688 0.625176 0.611160 0.596626 0.581558 0.565942 0.549761 0.533002 0.515647 0.497679 0.479078 0.459820 0.439875 0.419208 0.397772 0.375507 0.352332 0.328135 0.302760 0.275981 0.247452 0.216617 0.182491 0.143063 0.092901 1.272573 0.909031 0.843879 0.815907 0.799176 0.787155 0.777479 0.769091 0.761450 0.754241 0.747267 0.740387 0.733493 0.726499 0.719328 0.711913 0.704196 0.696122 0.687646 0.678726 0.669326 0.659414 0.648962 0.637948 0.626350 0.614150 0.601333 0.587884 0.573794 0.559049 0.543642 0.527563 0.510800 0.493345 0.475182 0.456296 0.436664 0.416258 0.395040 0.372954 0.349929 0.325859 0.300597 0.273923 0.245504 0.214795 0.180833 0.141644 0.091884 1.239864 0.885502 0.821807 0.794284 0.777678 0.765646 0.755910 0.747472 0.739832 0.732716 0.725954 0.719430 0.713049 0.706724 0.700370 0.693905 0.687243 0.680304 0.673011 0.665293 0.657086 0.648335 0.638993 0.629018 0.618378 0.607048 0.595008 0.582244 0.568745 0.554504 0.539516 0.523779 0.507290 0.490044 0.472037 0.453260 0.433700 0.413334 0.392132 0.370048 0.347016 0.322941 0.297682 0.271032 0.242669 0.212070 0.178303 0.139449 0.090302 1.272573 0.909031 0.843879 0.815907 0.799176 0.787155 0.777479 0.769091 0.761450 0.754241 0.747267 0.740387 0.733493 0.726499 0.719328 0.711913 0.704196 0.696122 0.687646 0.678726 0.669326 0.659414 0.648962 0.637948 0.626350 0.614150 0.601333 0.587884 0.573794 0.559049 0.543642 0.527563 0.510800 0.493345 0.475182 0.456296 0.436664 0.416258 0.395040 0.372954 0.349929 0.325859 0.300597 0.273923 0.245504 0.214795 0.180833 0.141644 0.091884 1.353286 0.966430 0.896788 0.866558 0.848150 0.834612 0.823425 0.813467 0.804162 0.795187 0.786343 0.777500 0.768567 0.759480 0.750184 0.740638 0.730806 0.720656 0.710162 0.699299 0.688043 0.676373 0.664269 0.651714 0.638688 0.625176 0.611160 0.596626 0.581558 0.565942 0.549761 0.533002 0.515647 0.497679 0.479078 0.459820 0.439875 0.419208 0.397772 0.375507 0.352332 0.328135 0.302760 0.275981 0.247452 0.216617 0.182491 0.143063 0.092901 1.411590 1.008005 0.935274 0.903622 0.884267 0.869956 0.858059 0.847402 0.837383 0.827662 0.818032 0.808357 0.798544 0.788527 0.778256 0.767691 0.756802 0.745562 0.733950 0.721948 0.709541 0.696715 0.683457 0.669756 0.655600 0.640980 0.625885 0.610303 0.594225 0.577639 0.560533 0.542893 0.524705 0.505950 0.486608 0.466655 0.446061 0.424786 0.402783 0.379988 0.356316 0.331655 0.305842 0.278648 0.249723 0.218504 0.184000 0.144185 0.093590 1.460488 1.042894 0.967605 0.934803 0.914709 0.899818 0.887406 0.876259 0.865753 0.855534 0.845388 0.835175 0.824799 0.814193 0.803307 0.792101 0.780546 0.768619 0.756299 0.743571 0.730422 0.716841 0.702818 0.688346 0.673415 0.658020 0.642151 0.625802 0.608964 0.591628 0.573784 0.555420 0.536523 0.517074 0.497056 0.476442 0.455202 0.433297 0.410677 0.387277 0.363011 0.337762 0.311366 0.283587 0.254069 0.222240 0.187093 0.146568 0.095112 1.503280 1.073438 0.995924 0.962136 0.941422 0.926055 0.913231 0.901700 0.890819 0.880225 0.869694 0.859086 0.848302 0.837274 0.825951 0.814297 0.802281 0.789881 0.777080 0.763862 0.750217 0.736134 0.721606 0.706625 0.691185 0.675277 0.658897 0.642035 0.624684 0.606834 0.588475 0.569594 0.550175 0.530200 0.509649 0.488494 0.466703 0.444234 0.421034 0.397038 0.372153 0.346261 0.319192 0.290705 0.260436 0.227797 0.191758 0.150210 0.097466 1.540195 1.099789 1.020360 0.985727 0.964485 0.948716 0.935551 0.923706 0.912526 0.901639 0.890821 0.879928 0.868864 0.857563 0.845978 0.834072 0.821820 0.809199 0.796194 0.782788 0.768970 0.754729 0.740052 0.724931 0.709355 0.693314 0.676798 0.659793 0.642288 0.624269 0.605720 0.586623 0.566958 0.546701 0.525825 0.504299 0.482084 0.459134 0.435392 0.410786 0.385222 0.358573 0.330666 0.301250 0.269950 0.236161 0.198817 0.155741 0.101047 1.536714 1.099891 1.023687 0.992204 0.973450 0.959136 0.947134 0.936833 0.927164 0.917728 0.908125 0.897836 0.888051 0.878003 0.867411 0.856240 0.844925 0.832929 0.820533 0.807795 0.794494 0.780921 0.766788 0.752383 0.737438 0.722083 0.706273 0.689834 0.672917 0.655487 0.637353 0.618733 0.599371 0.579247 0.558311 0.536617 0.514013 0.490463 0.465846 0.440124 0.413394 0.385469 0.356060 0.324863 0.291470 0.255287 0.215292 0.169199 0.109887 1.488962 1.071187 1.003832 0.979900 0.966998 0.956265 0.947197 0.940605 0.934570 0.928638 0.922039 0.913467 0.906814 0.899819 0.891711 0.882447 0.873431 0.863030 0.852159 0.841023 0.828967 0.816922 0.804024 0.791187 0.777612 0.763725 0.749421 0.734189 0.718529 0.702373 0.685161 0.667623 0.649013 0.629320 0.608457 0.586665 0.563564 0.539146 0.513159 0.485649 0.457123 0.427273 0.395576 0.361630 0.324979 0.285078 0.241042 0.190458 0.123871 1.435564 1.038430 0.980238 0.964039 0.957152 0.950163 0.944207 0.941528 0.939337 0.937129 0.933756 0.927115 0.923855 0.920189 0.914839 0.907757 0.901335 0.892817 0.883764 0.874530 0.864013 0.853797 0.842425 0.831452 0.819529 0.807386 0.794852 0.781070 0.766896 0.752222 0.736114 0.719820 0.702091 0.682926 0.662197 0.640339 0.616732 0.591399 0.563957 0.534536 0.504065 0.472113 0.437920 0.400983 0.360796 0.316870 0.268459 0.213017 0.138679 1.385642 1.007558 0.957684 0.948494 0.947086 0.943557 0.940513 0.941482 0.942881 0.944157 0.943814 0.939030 0.938978 0.938466 0.935753 0.930785 0.926864 0.920198 0.912944 0.905593 0.896628 0.888234 0.878406 0.869290 0.859027 0.848627 0.837856 0.825537 0.812850 0.799653 0.784662 0.769604 0.752763 0.734146 0.713588 0.691697 0.667638 0.641459 0.612654 0.581431 0.549108 0.515140 0.478549 0.438740 0.395159 0.347368 0.294742 0.234606 0.152845 1.338707 0.978232 0.935860 0.932959 0.936491 0.936130 0.935783 0.940116 0.944825 0.949312 0.951769 0.948725 0.951648 0.954062 0.953802 0.950815 0.949230 0.944311 0.938757 0.933184 0.925697 0.919031 0.910677 0.903323 0.894642 0.885901 0.876807 0.865889 0.854626 0.842842 0.828932 0.815061 0.799087 0.781023 0.760667 0.738791 0.714356 0.687435 0.657411 0.624562 0.590560 0.554759 0.515980 0.473540 0.426846 0.375501 0.318995 0.254528 0.165921 1.293305 0.949426 0.913821 0.916528 0.924478 0.926996 0.929130 0.936539 0.944271 0.951691 0.956706 0.955276 0.960928 0.966021 0.968016 0.966860 0.967427 0.964128 0.960156 0.956236 0.950133 0.945079 0.938110 0.932404 0.925212 0.918031 0.910517 0.900930 0.891022 0.880585 0.867724 0.855000 0.839884 0.822395 0.802297 0.780509 0.755809 0.728292 0.697238 0.662988 0.627537 0.590145 0.549449 0.504692 0.455241 0.400737 0.340772 0.272438 0.177688 1.247131 0.919515 0.890076 0.897766 0.909643 0.914768 0.919176 0.929376 0.939847 0.949920 0.957251 0.957304 0.965435 0.972961 0.977009 0.977530 0.980064 0.978259 0.975749 0.973363 0.968556 0.965008 0.959348 0.955193 0.949417 0.943722 0.937718 0.929427 0.920842 0.911729 0.899930 0.888363 0.874151 0.857315 0.837591 0.816026 0.791236 0.763333 0.731503 0.696144 0.659537 0.620858 0.578582 0.531878 0.480081 0.422864 0.359912 0.288222 0.188079 1.195855 0.885438 0.861812 0.873975 0.889349 0.896841 0.903333 0.916053 0.928989 0.941445 0.950860 0.952274 0.962644 0.972371 0.978288 0.980355 0.984701 0.984301 0.983183 0.982264 0.978732 0.976661 0.972323 0.969723 0.965398 0.961237 0.956806 0.949914 0.942767 0.935107 0.924539 0.914297 0.901191 0.885245 0.866164 0.845107 0.820543 0.792595 0.760365 0.724296 0.686922 0.647342 0.603881 0.555645 0.501932 0.442444 0.376943 0.302334 0.197414 1.126907 0.838301 0.820854 0.837319 0.855972 0.865731 0.874229 0.889314 0.904566 0.919276 0.930706 0.933550 0.946145 0.958100 0.966004 0.969832 0.976221 0.977562 0.978224 0.979198 0.977433 0.977340 0.974871 0.974361 0.972049 0.969975 0.967661 0.962725 0.957556 0.951867 0.943058 0.934634 0.923132 0.908577 0.890649 0.870605 0.846780 0.819310 0.787218 0.750980 0.713346 0.673338 0.629140 0.579784 0.524517 0.463035 0.395124 0.317541 0.207625 1.118002 0.829856 0.810691 0.825362 0.842911 0.852653 0.861607 0.877034 0.892711 0.907942 0.920072 0.924026 0.937462 0.950292 0.959212 0.964191 0.971628 0.974136 0.975931 0.977955 0.977237 0.978041 0.976430 0.976602 0.974902 0.973305 0.971346 0.966712 0.961713 0.956075 0.947273 0.938704 0.927017 0.912232 0.894035 0.873646 0.849454 0.821591 0.789110 0.752466 0.714326 0.673756 0.629003 0.579137 0.523430 0.461584 0.393374 0.315605 0.206112 1.165161 0.862377 0.839502 0.851834 0.867692 0.876277 0.884243 0.898572 0.913131 0.927225 0.938241 0.941213 0.953442 0.965029 0.972739 0.976542 0.982719 0.984025 0.984599 0.985368 0.983420 0.982945 0.980081 0.978951 0.975974 0.973088 0.969843 0.963972 0.957746 0.950900 0.940960 0.931266 0.918536 0.902795 0.883744 0.862586 0.837751 0.809376 0.776543 0.739708 0.701497 0.661004 0.616524 0.567152 0.512183 0.451332 0.384388 0.308236 0.201202 1.195740 0.883469 0.858179 0.868982 0.883726 0.891530 0.898813 0.912376 0.926160 0.939468 0.949723 0.952034 0.963430 0.974163 0.981045 0.984049 0.989362 0.989848 0.989588 0.989498 0.986711 0.985359 0.981641 0.979623 0.975780 0.972027 0.967924 0.961241 0.954221 0.946605 0.935961 0.925583 0.912241 0.895965 0.876461 0.854919 0.829795 0.801227 0.768311 0.731499 0.693378 0.653057 0.608856 0.559883 0.505442 0.445250 0.379095 0.303906 0.198330 1.212575 0.894840 0.867934 0.877605 0.891497 0.898717 0.905486 0.918448 0.931627 0.944327 0.954005 0.955842 0.966605 0.976692 0.982966 0.985398 0.990081 0.989992 0.989148 0.988454 0.985089 0.983123 0.978818 0.976179 0.971738 0.967384 0.962686 0.955452 0.947891 0.939753 0.928646 0.917814 0.904082 0.887479 0.867720 0.845978 0.820733 0.792125 0.759265 0.722598 0.684673 0.644614 0.600769 0.552259 0.498400 0.438912 0.373589 0.299407 0.195345 1.217020 0.897422 0.869591 0.878448 0.891677 0.898429 0.904766 0.917201 0.929837 0.941987 0.951145 0.952560 0.962742 0.972236 0.977953 0.979866 0.983975 0.983364 0.981992 0.980753 0.976870 0.974355 0.969529 0.966338 0.961373 0.956494 0.951283 0.943583 0.935572 0.927009 0.915539 0.904364 0.890356 0.873551 0.853669 0.831870 0.806659 0.778177 0.745553 0.709227 0.671712 0.632150 0.588918 0.541155 0.488194 0.429769 0.365690 0.293010 0.191113 1.205259 0.888494 0.860620 0.869050 0.881825 0.888221 0.894187 0.90613