<?xml version='1.0' encoding='utf-8'?>
<VTKFile type="UnstructuredGrid" version="0.1" byte_order="LittleEndian"><UnstructuredGrid><Piece NumberOfPoints="2500" NumberOfCells="2401"><Points><DataArray type="Float32" Name="Points" NumberOfComponents="3" format="ascii">
3.799996 -11.000000 0.799879 3.801519 -11.000000 0.800288 3.804026 -11.000000 0.800892 3.807512 -11.000000 0.801608 3.811970 -11.000000 0.802351 3.817397 -11.000000 0.803069 3.823788 -11.000000 0.803779 3.831138 -11.000000 0.804506 3.839440 -11.000000 0.805229 3.848686 -11.000000 0.805931 3.858867 -11.000000 0.806591 3.869973 -11.000000 0.807194 3.881996 -11.000000 0.807787 3.894922 -11.000000 0.808339 3.908740 -11.000000 0.808827 3.923435 -11.000000 0.809244 3.938994 -11.000000 0.809602 3.955401 -11.000000 0.809880 3.972641 -11.000000 0.810086 3.990697 -11.000000 0.810222 4.009552 -11.000000 0.810281 4.029187 -11.000000 0.810271 4.049583 -11.000000 0.810183 4.070720 -11.000000 0.810024 4.092578 -11.000000 0.809782 4.115134 -11.000000 0.809457 4.138366 -11.000000 0.809043 4.162252 -11.000000 0.808528 4.186768 -11.000000 0.807913 4.211889 -11.000000 0.807192 4.237590 -11.000000 0.806353 4.263845 -11.000000 0.805398 4.290629 -11.000000 0.804312 4.317915 -11.000000 0.803088 4.345675 -11.000000 0.801721 4.373882 -11.000000 0.800212 4.402507 -11.000000 0.798553 4.431523 -11.000000 0.796744 4.460899 -11.000000 0.794785 4.490608 -11.000000 0.792680 4.520621 -11.000000 0.790444 4.550906 -11.000000 0.788080 4.581435 -11.000000 0.785586 4.612177 -11.000000 0.782964 4.643101 -11.000000 0.780217 4.674177 -11.000000 0.777357 4.705375 -11.000000 0.774396 4.736663 -11.000000 0.771337 4.768009 -11.000000 0.768156 4.799383 -11.000000 0.764874 3.586731 -10.551020 0.766204 3.588279 -10.551020 0.766624 3.590826 -10.551020 0.767246 3.594368 -10.551020 0.767984 3.598900 -10.551020 0.768752 3.604415 -10.551020 0.769499 3.610911 -10.551020 0.770240 3.618383 -10.551020 0.771002 3.626823 -10.551020 0.771761 3.636222 -10.551020 0.772503 3.646573 -10.551020 0.773205 3.657864 -10.551020 0.773851 3.670087 -10.551020 0.774490 3.683230 -10.551020 0.775090 3.697278 -10.551020 0.775627 3.712219 -10.551020 0.776095 3.728039 -10.551020 0.776506 3.744722 -10.551020 0.776838 3.762251 -10.551020 0.777098 3.780611 -10.551020 0.777291 3.799783 -10.551020 0.777407 3.819748 -10.551020 0.777455 3.840488 -10.551020 0.777426 3.861982 -10.551020 0.777328 3.884208 -10.551020 0.777147 3.907145 -10.551020 0.776884 3.930770 -10.551020 0.776533 3.955059 -10.551020 0.776080 3.979989 -10.551020 0.775528 4.005535 -10.551020 0.774870 4.031671 -10.551020 0.774094 4.058372 -10.551020 0.773201 4.085610 -10.551020 0.772177 4.113358 -10.551020 0.771014 4.141590 -10.551020 0.769707 4.170276 -10.551020 0.768256 4.199388 -10.551020 0.766656 4.228897 -10.551020 0.764903 4.258774 -10.551020 0.762998 4.288989 -10.551020 0.760947 4.319514 -10.551020 0.758763 4.350316 -10.551020 0.756450 4.381366 -10.551020 0.754005 4.412633 -10.551020 0.751430 4.444086 -10.551020 0.748730 4.475694 -10.551020 0.745914 4.507426 -10.551020 0.742996 4.539249 -10.551020 0.739980 4.571133 -10.551020 0.736839 4.603045 -10.551020 0.733596 3.373466 -10.102041 0.732528 3.375038 -10.102041 0.732960 3.377626 -10.102041 0.733599 3.381224 -10.102041 0.734360 3.385828 -10.102041 0.735155 3.391433 -10.102041 0.735931 3.398035 -10.102041 0.736704 3.405628 -10.102041 0.737500 3.414205 -10.102041 0.738297 3.423758 -10.102041 0.739079 3.434278 -10.102041 0.739824 3.445754 -10.102041 0.740514 3.458177 -10.102041 0.741200 3.471536 -10.102041 0.741850 3.485815 -10.102041 0.742438 3.501002 -10.102041 0.742958 3.517083 -10.102041 0.743423 3.534040 -10.102041 0.743810 3.551859 -10.102041 0.744128 3.570522 -10.102041 0.744378 3.590011 -10.102041 0.744553 3.610307 -10.102041 0.744662 3.631390 -10.102041 0.744695 3.653240 -10.102041 0.744659 3.675834 -10.102041 0.744541 3.699152 -10.102041 0.744343 3.723169 -10.102041 0.744056 3.747862 -10.102041 0.743669 3.773206 -10.102041 0.743182 3.799177 -10.102041 0.742589 3.825748 -10.102041 0.741878 3.852893 -10.102041 0.741051 3.880585 -10.102041 0.740091 3.908796 -10.102041 0.738991 3.937499 -10.102041 0.737747 3.966664 -10.102041 0.736358 3.996263 -10.102041 0.734818 4.026266 -10.102041 0.733124 4.056643 -10.102041 0.731277 4.087365 -10.102041 0.729282 4.118401 -10.102041 0.727154 4.149720 -10.102041 0.724894 4.181292 -10.102041 0.722502 4.213084 -10.102041 0.719977 4.245066 -10.102041 0.717326 4.277205 -10.102041 0.714559 4.309471 -10.102041 0.711687 4.341830 -10.102041 0.708716 4.374251 -10.102041 0.705618 4.406701 -10.102041 0.702416 3.160201 -9.653061 0.698853 3.161798 -9.653061 0.699296 3.164425 -9.653061 0.699954 3.168080 -9.653061 0.700738 3.172757 -9.653061 0.701560 3.178451 -9.653061 0.702364 3.185157 -9.653061 0.703169 3.192871 -9.653061 0.704002 3.201586 -9.653061 0.704838 3.211292 -9.653061 0.705661 3.221981 -9.653061 0.706449 3.233642 -9.653061 0.707185 3.246266 -9.653061 0.707919 3.259840 -9.653061 0.708619 3.274350 -9.653061 0.709259 3.289783 -9.653061 0.709833 3.306124 -9.653061 0.710354 3.323356 -9.653061 0.710798 3.341465 -9.653061 0.711174 3.360431 -9.653061 0.711484 3.380236 -9.653061 0.711720 3.400863 -9.653061 0.711892 3.422289 -9.653061 0.711988 3.444494 -9.653061 0.712016 3.467457 -9.653061 0.711964 3.491155 -9.653061 0.711832 3.515564 -9.653061 0.711612 3.540660 -9.653061 0.711293 3.566419 -9.653061 0.710874 3.592814 -9.653061 0.710349 3.619820 -9.653061 0.709706 3.647410 -9.653061 0.708946 3.675555 -9.653061 0.708053 3.704229 -9.653061 0.707020 3.733403 -9.653061 0.705841 3.763047 -9.653061 0.704517 3.793133 -9.653061 0.703039 3.823629 -9.653061 0.701408 3.854507 -9.653061 0.699621 3.885735 -9.653061 0.697686 3.917282 -9.653061 0.695615 3.949119 -9.653061 0.693412 3.981211 -9.653061 0.691075 4.013529 -9.653061 0.688605 4.046039 -9.653061 0.686006 4.078710 -9.653061 0.683289 4.111510 -9.653061 0.680467 4.144405 -9.653061 0.677545 4.177363 -9.653061 0.674493 4.210351 -9.653061 0.671336 2.946936 -9.204082 0.665177 2.948557 -9.204082 0.665632 2.951225 -9.204082 0.666309 2.954936 -9.204082 0.667116 2.959685 -9.204082 0.667965 2.965468 -9.204082 0.668799 2.972279 -9.204082 0.669638 2.980115 -9.204082 0.670506 2.988966 -9.204082 0.671382 2.998825 -9.204082 0.672247 3.009683 -9.204082 0.673079 3.021529 -9.204082 0.673862 3.034353 -9.204082 0.674646 3.048142 -9.204082 0.675397 3.062883 -9.204082 0.676091 3.078561 -9.204082 0.676721 3.095162 -9.204082 0.677298 3.112670 -9.204082 0.677801 3.131067 -9.204082 0.678237 3.150336 -9.204082 0.678609 3.170459 -9.204082 0.678907 3.191415 -9.204082 0.679143 3.213184 -9.204082 0.679305 3.235745 -9.204082 0.679400 3.259076 -9.204082 0.679416 3.283154 -9.204082 0.679353 3.307955 -9.204082 0.679202 3.333454 -9.204082 0.678952 3.359627 -9.204082 0.678604 3.386446 -9.204082 0.678149 3.413887 -9.204082 0.677576 3.441921 -9.204082 0.676886 3.470520 -9.204082 0.676063 3.499657 -9.204082 0.675099 3.529301 -9.204082 0.673989 3.559425 -9.204082 0.672732 3.589997 -9.204082 0.671321 3.620987 -9.204082 0.669754 3.652364 -9.204082 0.668031 3.684098 -9.204082 0.666158 3.716158 -9.204082 0.664148 3.748511 -9.204082 0.662005 3.781125 -9.204082 0.659726 3.813967 -9.204082 0.657313 3.847006 -9.204082 0.654770 3.880209 -9.204082 0.652107 3.913542 -9.204082 0.649338 3.946973 -9.204082 0.646466 3.980468 -9.204082 0.643464 4.013994 -9.204082 0.640355 2.733671 -8.755102 0.631501 2.735316 -8.755102 0.631969 2.738024 -8.755102 0.632664 2.741791 -8.755102 0.633495 2.746613 -8.755102 0.634371 2.752484 -8.755102 0.635236 2.759401 -8.755102 0.636108 2.767357 -8.755102 0.637014 2.776345 -8.755102 0.637929 2.786358 -8.755102 0.638837 2.797384 -8.755102 0.639716 2.809414 -8.755102 0.640546 2.822438 -8.755102 0.641380 2.836443 -8.755102 0.642185 2.851414 -8.755102 0.642934 2.867338 -8.755102 0.643620 2.884199 -8.755102 0.644256 2.901981 -8.755102 0.644819 2.920667 -8.755102 0.645317 2.940239 -8.755102 0.645752 2.960678 -8.755102 0.646116 2.981964 -8.755102 0.646418 3.004076 -8.755102 0.646647 3.026992 -8.755102 0.646811 3.050691 -8.755102 0.646897 3.075149 -8.755102 0.646904 3.100341 -8.755102 0.646826 3.126243 -8.755102 0.646648 3.152830 -8.755102 0.646372 3.180074 -8.755102 0.645990 3.207949 -8.755102 0.645490 3.236427 -8.755102 0.644873 3.265480 -8.755102 0.644122 3.295079 -8.755102 0.643230 3.325194 -8.755102 0.642191 3.355796 -8.755102 0.641004 3.386854 -8.755102 0.639662 3.418338 -8.755102 0.638163 3.450215 -8.755102 0.636506 3.482456 -8.755102 0.634698 3.515026 -8.755102 0.632753 3.547896 -8.755102 0.630672 3.581031 -8.755102 0.628455 3.614399 -8.755102 0.626101 3.647967 -8.755102 0.623617 3.681701 -8.755102 0.621011 3.715568 -8.755102 0.618298 3.749535 -8.755102 0.615481 3.783567 -8.755102 0.612531 3.817631 -8.755102 0.609473 2.520406 -8.306122 0.597826 2.522075 -8.306122 0.598305 2.524823 -8.306122 0.599019 2.528646 -8.306122 0.599875 2.533540 -8.306122 0.600779 2.539500 -8.306122 0.601675 2.546521 -8.306122 0.602581 2.554598 -8.306122 0.603524 2.563724 -8.306122 0.604481 2.573889 -8.306122 0.605433 2.585084 -8.306122 0.606358 2.597298 -8.306122 0.607237 2.610522 -8.306122 0.608123 2.624741 -8.306122 0.608982 2.639943 -8.306122 0.609787 2.656112 -8.306122 0.610531 2.673233 -8.306122 0.611228 2.691289 -8.306122 0.611853 2.710264 -8.306122 0.612414 2.730138 -8.306122 0.612914 2.750893 -8.306122 0.613344 2.772509 -8.306122 0.613715 2.794963 -8.306122 0.614014 2.818236 -8.306122 0.614249 2.842302 -8.306122 0.614407 2.867139 -8.306122 0.614487 2.892723 -8.306122 0.614482 2.919028 -8.306122 0.614379 2.946028 -8.306122 0.614178 2.973696 -8.306122 0.613872 3.002005 -8.306122 0.613447 3.030927 -8.306122 0.612905 3.060434 -8.306122 0.612230 3.090495 -8.306122 0.611412 3.121081 -8.306122 0.610446 3.152161 -8.306122 0.609332 3.183706 -8.306122 0.608062 3.215682 -8.306122 0.606634 3.248060 -8.306122 0.605047 3.280806 -8.306122 0.603307 3.313888 -8.306122 0.601428 3.347274 -8.306122 0.599414 3.38093
[...]
</DataArray></Cells><CellData><DataArray type="Float32" Name="gamma" format="ascii">
0.113350 0.083422 0.080599 0.081102 0.081913 0.082019 0.081996 0.082461 0.082864 0.083142 0.083065 0.082190 0.082065 0.081816 0.081160 0.080102 0.079212 0.077859 0.076423 0.075002 0.073353 0.071865 0.070210 0.068771 0.067244 0.065815 0.064457 0.062980 0.061594 0.060286 0.058842 0.057565 0.056171 0.054665 0.053024 0.051359 0.049531 0.047556 0.045352 0.042961 0.040614 0.038232 0.035668 0.032846 0.029713 0.026264 0.022524 0.018322 0.012047 0.091109 0.067877 0.066606 0.068086 0.069723 0.070601 0.071369 0.072694 0.074022 0.075293 0.076272 0.076499 0.077560 0.078553 0.079182 0.079443 0.079909 0.079919 0.079851 0.079789 0.079467 0.079269 0.078844 0.078569 0.078121 0.077678 0.077203 0.076494 0.075762 0.074988 0.073951 0.072962 0.071727 0.070254 0.068521 0.066644 0.064485 0.062062 0.059298 0.056239 0.053130 0.049896 0.046388 0.042533 0.038281 0.033626 0.028585 0.022949 0.014945 0.088577 0.066153 0.065112 0.066758 0.068535 0.069532 0.070418 0.071875 0.073343 0.074761 0.075891 0.076265 0.077495 0.078666 0.079475 0.079920 0.080583 0.080794 0.080934 0.081092 0.080997 0.081038 0.080858 0.080840 0.080652 0.080475 0.080268 0.079823 0.079350 0.078828 0.078027 0.077260 0.076224 0.074923 0.073331 0.071563 0.069474 0.067081 0.064300 0.061178 0.057962 0.054571 0.050854 0.046732 0.042150 0.037095 0.031573 0.025343 0.016523 0.093382 0.069612 0.068362 0.069944 0.071692 0.072667 0.073537 0.074990 0.076456 0.077871 0.078992 0.079348 0.080573 0.081736 0.082533 0.082960 0.083610 0.083800 0.083922 0.084063 0.083950 0.083979 0.083786 0.083762 0.083569 0.083391 0.083187 0.082743 0.082275 0.081759 0.080962 0.080199 0.079163 0.077856 0.076251 0.074463 0.072344 0.069909 0.067073 0.063879 0.060579 0.057087 0.053248 0.048980 0.044223 0.038959 0.033187 0.026647 0.017389 0.097876 0.072854 0.071418 0.072948 0.074681 0.075645 0.076512 0.077975 0.079452 0.080880 0.082010 0.082364 0.083601 0.084776 0.085578 0.086004 0.086656 0.086842 0.086957 0.087091 0.086966 0.086984 0.086777 0.086739 0.086529 0.086333 0.086109 0.085641 0.085147 0.084601 0.083769 0.082971 0.081892 0.080536 0.078875 0.077026 0.074837 0.072324 0.069399 0.066107 0.062701 0.059096 0.055131 0.050721 0.045805 0.040363 0.034387 0.027607 0.018020 0.103047 0.076574 0.074911 0.076369 0.078070 0.079011 0.079863 0.081323 0.082800 0.084227 0.085352 0.085690 0.086924 0.088095 0.088886 0.089295 0.089933 0.090097 0.090188 0.090298 0.090145 0.090136 0.089897 0.089830 0.089587 0.089357 0.089099 0.088591 0.088055 0.087467 0.086586 0.085737 0.084603 0.083185 0.081457 0.079534 0.077265 0.074663 0.071641 0.068243 0.064725 0.061001 0.056907 0.052356 0.047284 0.041669 0.035499 0.028494 0.018601 0.108214 0.080293 0.078404 0.079791 0.081461 0.082379 0.083219 0.084679 0.086157 0.087586 0.088709 0.089034 0.090269 0.091438 0.092223 0.092619 0.093247 0.093393 0.093465 0.093555 0.093377 0.093345 0.093079 0.092985 0.092712 0.092451 0.092159 0.091613 0.091037 0.090405 0.089475 0.088575 0.087383 0.085902 0.084102 0.082102 0.079749 0.077055 0.073930 0.070421 0.066787 0.062939 0.058710 0.054013 0.048780 0.042986 0.036619 0.029385 0.019183 0.113137 0.083840 0.081741 0.083065 0.084711 0.085613 0.086445 0.087910 0.089396 0.090834 0.091962 0.092284 0.093529 0.094708 0.095498 0.095894 0.096526 0.096669 0.096737 0.096824 0.096638 0.096600 0.096324 0.096222 0.095937 0.095663 0.095356 0.094788 0.094188 0.093529 0.092564 0.091627 0.090390 0.088854 0.086992 0.084922 0.082487 0.079703 0.076476 0.072852 0.069095 0.065115 0.060740 0.055881 0.050469 0.044477 0.037886 0.030392 0.019840 0.116522 0.086330 0.084144 0.085483 0.087160 0.088081 0.088934 0.090436 0.091964 0.093445 0.094615 0.094966 0.096261 0.097492 0.098328 0.098766 0.099447 0.099631 0.099741 0.099872 0.099726 0.099731 0.099494 0.099434 0.099188 0.098952 0.098680 0.098142 0.097569 0.096933 0.095982 0.095057 0.093821 0.092277 0.090394 0.088293 0.085813 0.082968 0.079662 0.075941 0.072072 0.067960 0.063431 0.058390 0.052765 0.046524 0.039643 0.031799 0.020766 0.122773 0.090993 0.088696 0.090091 0.091806 0.092682 0.093457 0.094898 0.096360 0.097769 0.098850 0.099073 0.100269 0.101397 0.102116 0.102425 0.102985 0.103037 0.103016 0.103023 0.102751 0.102643 0.102294 0.102136 0.101795 0.101474 0.101125 0.100511 0.099870 0.099175 0.098164 0.097189 0.095903 0.094309 0.092374 0.090225 0.087695 0.084797 0.081433 0.077650 0.073722 0.069552 0.064957 0.059837 0.054116 0.047759 0.040738 0.032715 0.021387 0.135661 0.099981 0.096756 0.097588 0.098898 0.099497 0.100033 0.101206 0.102409 0.103566 0.104421 0.104476 0.105423 0.106301 0.106794 0.106896 0.107220 0.107063 0.106827 0.106605 0.106114 0.105763 0.105178 0.104760 0.104164 0.103576 0.102956 0.102083 0.101178 0.100215 0.098955 0.097722 0.096196 0.094379 0.092243 0.089902 0.087203 0.084159 0.080679 0.076806 0.072793 0.068548 0.063903 0.058765 0.053060 0.046752 0.039805 0.031887 0.020815 0.149343 0.109491 0.105238 0.105424 0.106262 0.106534 0.106786 0.107638 0.108527 0.109381 0.109960 0.109812 0.110465 0.111051 0.111281 0.111152 0.111214 0.110835 0.110375 0.109919 0.109212 0.108622 0.107813 0.107145 0.106306 0.105467 0.104589 0.103474 0.102322 0.101108 0.099618 0.098143 0.096395 0.094376 0.092060 0.089550 0.086709 0.083546 0.079980 0.076049 0.071979 0.067687 0.063018 0.057884 0.052213 0.045962 0.039085 0.031245 0.020380 0.164265 0.119839 0.114436 0.113890 0.114190 0.114091 0.114021 0.114507 0.115039 0.115545 0.115809 0.115426 0.115743 0.115994 0.115925 0.115530 0.115295 0.114662 0.113949 0.113230 0.112281 0.111425 0.110367 0.109423 0.108321 0.107208 0.106052 0.104679 0.103263 0.101784 0.100053 0.098326 0.096349 0.094125 0.091629 0.088953 0.085974 0.082702 0.079062 0.075087 0.070976 0.066651 0.061972 0.056859 0.051241 0.045067 0.038276 0.030530 0.019900 0.180349 0.130969 0.124297 0.122934 0.122632 0.122123 0.121700 0.121782 0.121919 0.122040 0.121955 0.121316 0.121262 0.121144 0.120745 0.120058 0.119496 0.118585 0.117596 0.116588 0.115375 0.114229 0.112899 0.111656 0.110266 0.108857 0.107400 0.105747 0.104047 0.102282 0.100293 0.098295 0.096075 0.093633 0.090949 0.088100 0.084981 0.081598 0.077889 0.073879 0.069733 0.065384 0.060708 0.055631 0.050083 0.044008 0.037326 0.029696 0.019342 0.197613 0.142888 0.134827 0.132558 0.131591 0.130632 0.129825 0.129466 0.129172 0.128872 0.128407 0.127490 0.127032 0.126512 0.125754 0.124753 0.123836 0.122625 0.121336 0.120019 0.118521 0.117062 0.115442 0.113875 0.112177 0.110449 0.108667 0.106715 0.104710 0.102639 0.100374 0.098087 0.095607 0.092934 0.090052 0.087020 0.083755 0.080260 0.076484 0.072444 0.068269 0.063901 0.059237 0.054208 0.048747 0.042789 0.036235 0.028744 0.018705 0.216029 0.155573 0.146000 0.142736 0.141039 0.139595 0.138375 0.137541 0.136782 0.136029 0.135155 0.133944 0.133053 0.132102 0.130961 0.129624 0.128329 0.126801 0.125195 0.123548 0.121750 0.119960 0.118032 0.116123 0.114099 0.112032 0.109906 0.107637 0.105310 0.102914 0.100357 0.097763 0.095008 0.092092 0.089001 0.085778 0.082361 0.078750 0.074906 0.070838 0.066637 0.062254 0.057606 0.052634 0.047270 0.041443 0.035032 0.027695 0.018006 0.235941 0.169264 0.158028 0.153666 0.151163 0.149184 0.147515 0.146162 0.144895 0.143646 0.142325 0.140794 0.139433 0.138016 0.136461 0.134763 0.133063 0.131197 0.129256 0.127262 0.125149 0.123012 0.120765 0.118498 0.116135 0.113716 0.111234 0.108636 0.105974 0.103240 0.100381 0.097467 0.094426 0.091256 0.087948 0.084525 0.080949 0.077217 0.073302 0.069205 0.064974 0.060571 0.055937 0.051019 0.045754 0.040058 0.033792 0.026608 0.017279 0.254791 0.182195 0.169362 0.163941 0.160671 0.158202 0.156131 0.154311 0.152590 0.150903 0.149193 0.147398 0.145630 0.143808 0.141900 0.139901 0.137854 0.135705 0.133482 0.131190 0.128809 0.126369 0.123840 0.121254 0.118584 0.115843 0.113029 0.110125 0.107146 0.104091 0.100939 0.097715 0.094392 0.090968 0.087439 0.083808 0.080061 0.076192 0.072186 0.068037 0.063749 0.059298 0.054645 0.049746 0.044540 0.038935 0.032767 0.025687 0.016656 0.272703 0.194718 0.180643 0.174494 0.170710 0.167888 0.165518 0.163371 0.161330 0.159328 0.157323 0.155290 0.153211 0.151076 0.148876 0.146607 0.144266 0.141850 0.139359 0.136792 0.134148 0.131427 0.128630 0.125755 0.122804 0.119776 0.116671 0.113488 0.110227 0.106888 0.103469 0.099969 0.096386 0.092717 0.088961 0.085112 0.081167 0.077118 0.072958 0.068674 0.064254 0.059676 0.054912 0.049923 0.044646 0.038983 0.032760 0.025619 0.016596 0.286467 0.204541 0.189749 0.183282 0.179296 0.176318 0.173813 0.171540 0.169376 0.167251 0.165120 0.162957 0.160743 0.158467 0.156120 0.153697 0.151195 0.148611 0.145946 0.143197 0.140366 0.137453 0.134457 0.131380 0.128222 0.124984 0.121666 0.118269 0.114793 0.111237 0.107602 0.103886 0.100090 0.096210 0.092244 0.088190 0.084042 0.079794 0.075438 0.070963 0.066354 0.061591 0.056644 0.051472 0.046011 0.040160 0.033738 0.026377 0.017084 0.299792 0.214049 0.198560 0.191780 0.187595 0.184462 0.181821 0.179421 0.177133 0.174883 0.172627 0.170335 0.167990 0.165578 0.163092 0.160526 0.157878 0.155144 0.152325 0.149420 0.146429 0.143353 0.140191 0.136945 0.133616 0.130204 0.126710 0.123134 0.119478 0.115741 0.111922 0.108023 0.104041 0.099975 0.095823 0.091581 0.087246 0.082809 0.078264 0.073599 0.068799 0.063842 0.058699 0.053326 0.047657 0.041587 0.034930 0.027304 0.017682 0.312250 0.222937 0.206795 0.199722 0.195347 0.192067 0.189297 0.186776 0.184370 0.182003 0.179628 0.177216 0.174749 0.172213 0.169600 0.166906 0.164127 0.161262 0.158309 0.155269 0.152140 0.148925 0.145624 0.142236 0.138764 0.135207 0.131567 0.127844 0.124038 0.120149 0.116177 0.112122 0.107983 0.103757 0.099442 0.095035 0.090530 0.085923 0.081203 0.076359 0.071376 0.066230 0.060892 0.055316 0.049434 0.043137 0.036230 0.028320 0.018339 0.323590 0.231020 0.214275 0.206921 0.202360 0.198929 0.196024 0.193376 0.190846 0.188357 0.185862 0.183332 0.180748 0.178099 0.175375 0.172573 0.169690 0.166722 0.163670 0.160533 0.157309 0.153999 0.150602 0.147120 0.143551 0.139895 0.136153 0.132325 0.128410 0.124408 0.120319 0.116141 0.111874 0.107515 0.103062 0.098511 0.093857 0.089095 0.084214 0.079203 0.074045 0.068718 0.063189 0.057413 0.051317 0.044789 0.037626 0.029418 0.019055 0.329170 0.235011 0.217988 0.210526 0.205914 0.202462 0.199558 0.196930 0.194439 0.192005 0.189581 0.187133 0.184641 0.182088 0.179463 0.176756 0.173960 0.171070 0.168082 0.164993 0.161802 0.158506 0.155106 0.151601 0.147991 0.144279 0.140464 0.136547 0.132529 0.128411 0.124195 0.119879 0.115465 0.110951 0.106336 0.101617 0.096790 0.091850 0.086788 0.081592 0.076246 0.070728 0.065005 0.059029 0.052728 0.045987 0.038600 0.030149 0.019506 0.342399 0.244291 0.226362 0.218313 0.213173 0.209192 0.205749 0.202575 0.199539 0.196577 0.193654 0.190749 0.187851 0.184948 0.182033 0.179093 0.176117 0.173096 0.170017 0.166869 0.163644 0.160332 0.156927 0.153424 0.149818 0.146106 0.142286 0.138359 0.134323 0.130179 0.125929 0.121572 0.117109 0.112540 0.107865 0.103082 0.098188 0.093177 0.088043 0.082773 0.077352 0.071757 0.065955 0.059898 0.053511 0.046677 0.039186 0.030612 0.019808 0.329170 0.235011 0.217988 0.210526 0.205914 0.202462 0.199558 0.196930 0.194439 0.192005 0.189581 0.187133 0.184641 0.182088 0.179463 0.176756 0.173960 0.171070 0.168082 0.164993 0.161802 0.158506 0.155106 0.151601 0.147991 0.144279 0.140464 0.136547 0.132529 0.128411 0.124195 0.119879 0.115465 0.110951 0.106336 0.101617 0.096790 0.091850 0.086788 0.081592 0.076246 0.070728 0.065005 0.059029 0.052728 0.045987 0.038600 0.030149 0.019506 0.323590 0.231020 0.214275 0.206921 0.202360 0.198929 0.196024 0.193376 0.190846 0.188357 0.185862 0.183332 0.180748 0.178099 0.175375 0.172573 0.169690 0.166722 0.163670 0.160533 0.157309 0.153999 0.150602 0.147120 0.143551 0.139895 0.136153 0.132325 0.128410 0.124408 0.120319 0.116141 0.111874 0.107515 0.103062 0.098511 0.093857 0.089095 0.084214 0.079203 0.074045 0.068718 0.063189 0.057413 0.051317 0.044789 0.037626 0.029418 0.019055 0.312250 0.222937 0.206795 0.199722 0.195347 0.192067 0.189297 0.186776 0.184370 0.182003 0.179628 0.177216 0.174749 0.172213 0.169600 0.166906 0.164127 0.161262 0.158309 0.155269 0.152140 0.148925 0.145624 0.142236 0.138764 0.135207 0.131567 0.127844 0.124038 0.120149 0.116177 0.112122 0.107983 0.103757 0.099442 0.095035 0.090530 0.085923 0.081203 0.076359 0.071376 0.066230 0.060892 0.055316 0.049434 0.043137 0.036230 0.028320 0.018339 0.299792 0.214049 0.198560 0.191780 0.187595 0.184462 0.181821 0.179421 0.177133 0.174883 0.172627 0.170335 0.167990 0.165578 0.163092 0.160526 0.157878 0.155144 0.152325 0.149420 0.146429 0.143353 0.140191 0.136945 0.133616 0.130204 0.126710 0.123134 0.119478 0.115741 0.111922 0.108023 0.104041 0.099975 0.095823 0.091581 0.087246 0.082809 0.078264 0.073599 0.068799 0.063842 0.058699 0.053326 0.047657 0.041587 0.034930 0.027304 0.017682 0.286467 0.204541 0.189749 0.183282 0.179296 0.176318 0.173813 0.171540 0.169376 0.167251 0.165120 0.162957 0.160743 0.158467 0.156120 0.153697 0.151195 0.148611 0.145946 0.143197 0.140366 0.137453 0.134457 0.131380 0.128222 0.124984 0.121666 0.118269 0.114793 0.111237 0.107602 0.103886 0.100090 0.096210 0.092244 0.088190 0.084042 0.079794 0.075438 0.070963 0.066354 0.061591 0.056644 0.051472 0.046011 0.040160 0.033738 0.026377 0.017084 0.272703 0.194718 0.180643 0.174494 0.170710 0.167888 0.165518 0.163371 0.161330 0.159328 0.157323 0.155290 0.153211 0.151076 0.148876 0.146607 0.144266 0.141850 0.139359 0.136792 0.134148 0.131427 0.128630 0.125755 0.122804 0.119776 0.116671 0.113488 0.110227 0.106888 0.103469 0.099969 0.096386 0.092717 0.088961 0.085112 0.081167 0.077118 0.072958 0.068674 0.064254 0.059676 0.054912 0.049923 0.044646 0.038983 0.032760 0.025619 0.016596 0.254791 0.182195 0.169362 0.163941 0.160671 0.158202 0.156131 0.154311 0.152590 0.150903 0.149193 0.147398 0.145630 0.143808 0.141900 0.139901 0.137854 0.135705 0.133482 0.131190 0.128809 0.126369 0.123840 0.121254 0.118584 0.115843 0.113029 0.110125 0.107146 0.104091 0.100939 0.097715 0.094392 0.090968 0.087439 0.083808 0.080061 0.076192 0.072186 0.068037 0.063749 0.059298 0.054645 0.049746 0.044540 0.038935 0.032767 0.025687 0.016656 0.235941 0.169264 0.158028 0.153666 0.151163 0.149184 0.147515 0.146162 0.144895 0.143646 0.142325 0.140794 0.139433 0.138016 0.136461 0.134763 0.133063 0.131197 0.129256 0.127262 0.125149 0.123012 0.120765 0.118498 0.116135 0.113716 0.111234 0.108636 0.105974 0.103240 0.100381 0.097467 0.094426 0.091256 0.087948 0.084525 0.080949 0.077217 0.073302 0.069205 0.064974 0.060571 0.055937 0.051019 0.045754 0.040058 0.033792 0.026608 0.017279 0.216029 0.155573 0.146000 0.142736 0.141039 0.139595 0.138375 0.137541 0.136782 0.136029 0.135155 0.133944 0.133053 0.132102 0.130961 0.129624 0.128329 0.126801 0.125195 0.123548 0.121750 0.119960 0.118032 0.116123 0.114099 0.112032 0.109906 0.107637 0.105310 0.102914 0.100357 0.097763 0.095008 0.092092 0.089001 0.085778 0.082361 0.078750 0.074906 0.070838 0.066637 0.062254 0.057606 0.052634 0.047270 0.041443 0.035032 0.027695 0.018006 0.197613 0.142888 0.134827 0.132558 0.131591 0.130632 0.129825 0.129466 0.129172 0.128872 0.128407 0.127490 0.127032 0.126512 0.125754 0.124753 0.123836 0.122625 0.121336 0.120019 0.118521 0.117062 0.115442 0.113875 0.112177 0.110449 0.108667 0.106715 0.104710 0.102639 0.100374 0.098087 0.095607 0.092934 0.090052 0.087020 0.083755 0.080260 0.076484 0.072444 0.068269 0.063901 0.059237 0.054208 0.048747 0.042789 0.036235 0.028744 0.018705 0.180349 0.130969 0.124297 0.122934 0.122632 0.122123 0.121700 0.121782 0.121919 0.122040 0.121955 0.121316 0.121262 0.121144 0.120745 0.120058 0.119496 0.118585 0.117596 0.116588 0.115375 0.114229 0.112899 0.111656 0.110266 0.108857 0.107400 0.105747 0.104047 0.102282 0.100293 0.098295 0.096075 0.093633 0.090949 0.088100 0.084981 0.081598 0.077889 0.073879 0.069733 0.065384 0.060708 0.055631 0.050083 0.044008 0.037326 0.029696 0.019342 0.164265 0.119839 0.114436 0.113890 0.114190 0.114091 0.114021 0.114507 0.115039 0.115545 0.115809 0.115426 0.115743 0.115994 0.115925 0.115530 0.115295 0.114662 0.113949 0.113230 0.112281 0.111425 0.110367 0.109423 0.108321 0.107208 0.106052 0.104679 0.103263 0.101784 0.100053 0.098326 0.096349 0.094125 0.091629 0.088953 0.085974 0.082702 0.079062 0.075087 0.070976 0.066651 0.061972 0.056859 0.051241 0.045067 0.038276 0.030530 0.019900 0.149343 0.109491 0.105238 0.105424 0.106262 0.106534 0.106786 0.107638 0.108527 0.109381 0.109960 0.109812 0.110465 0.111051 0.111281 0.111152 0.111214 0.110835 0.110375 0.109919 0.109212 0.108622 0.107813 0.107145 0.106306 0.105467 0.104589 0.103474 0.102322 0.101108 0.099618 0.098143 0.096395 0.094376 0.092060 0.089550 0.086709 0.083546 0.079980 0.076049 0.071979 0.067687 0.063018 0.057884 0.052213 0.045962 0.039085 0.031245 0.020380 0.135661 0.099981 0.096756 0.097588 0.098898 0.099497 0.100033 0.101206 0.102409 0.103566 0.104421 0.104476 0.105423 0.106301 0.106794 0.106896 0.107220 0.107063 0.106827 0.106605 0.106114 0.105763 0.105178 0.104760 0.104164 0.103576 0.102956 0.102083 0.101178 0.100215 0.098955 0.097722 0.096196 0.094379 0.092243 0.089902 0.087203 0.084159 0.080679 0.076806 0.072793 0.068548 0.063903 0.058765 0.053060 0.046752 0.039805 0.031887 0.020815 0.122773 0.090993 0.088696 0.090091 0.091806 0.092682 0.093457 0.094898 0.096360 0.097769 0.098850 0.099073 0.100269 0.101397 0.102116 0.102425 0.102985 0.103037 0.103016 0.103023 0.102751 0.102643 0.102294 0.102136 0.101795 0.101474 0.101125 0.100511 0.099870 0.099175 0.098164 0.097189 0.095903 0.094309 0.092374 0.090225 0.087695 0.084797 0.081433 0.077650 0.073722 0.069552 0.064957 0.059837 0.054116 0.047759 0.040738 0.032715 0.021387 0.116522 0.086330 0.084144 0.085483 0.087160 0.088081 0.088934 0.090436 0.091964 0.093445 0.094615 0.094966 0.096261 0.097492 0.098328 0.098766 0.099447 0.099631 0.099741 0.099872 0.099726 0.099731 0.099494 0.099434 0.099188 0.098952 0.098680 0.098142 0.097569 0.096933 0.095982 0.095057 0.093821 0.092277 0.090394 0.088293 0.085813 0.082968 0.079662 0.075941 0.072072 0.067960 0.063431 0.058390 0.052765 0.046524 0.039643 0.031799 0.020766 0.113137 0.083840 0.081741 0.083065 0.084711 0.085613 0.086445 0.087910 0.089396 0.090834 0.091962 0.092284 0.093529 0.094708 0.095498 0.095894 0.096526 0.096669 0.096737 0.096824 0.096638 0.096600 0.096324 0.096222 0.095937 0.095663 0.095356 0.094788 0.094188 0.093529 0.092564 0.091627 0.090390 0.088854 0.086992 0.084922 0.082487 0.079703 0.076476 0.072852 0.069095 0.065115 0.060740 0.055881 0.050469 0.044477 0.037886 0.030392 0.019840 0.108214 0.080293 0.078404 0.079791 0.081461 0.082379 0.083219 0.084679 0.086157 0.087586 0.088709 0.089034 0.090269 0.091438 0.092223 0.092619 0.093247 0.093393 0.093465 0.093555 0.093377 0.093345 0.093079 0.092985 0.092712 0.092451 0.092159 0.091613 0.091037 0.090405 0.089475 0.088575 0.087383 0.085902 0.084102 0.082102 0.079749 0.077055 0.073930 0.070421 0.066787 0.062939 0.058710 0.054013 0.048780 0.042986 0.036619 0.029385 0.019183 0.103047 0.076574 0.074911 0.076369 0.078070 0.079011 0.079863 0.081323 0.082800 0.084227 0.085352 0.085690 0.086924 0.088095 0.088886 0.089295 0.089933 0.090097 0.090188 0.090298 0.090145 0.090136 0.089897 0.089830 0.089587 0.089357 0.089099 0.088591 0.088055 0.087467 0.086586 0.085737 0.084603 0.083185 0.081457 0.079534 0.077265 0.074663 0.071641 0.068243 0.064725 0.061001 0.056907 0.052356 0.047284 0.041669 0.035499 0.028494 0.018601 0.097876 0.072854 0.071418 0.072948 0.074681 0.075645 0.076512 0.077975 0.079452 0.080880 0.082010 0.082364 0.083601 0.084776 0.085578 0.086004 0.086656 0.086842 0.086957 0.087091 0.086966 0.086984 0.086777 0.086739 0.086529 0.086333 0.086109 0.085641 0.085147 0.084601 0.083769 0.082971 0.081892 0.080536 0.078875 0.077026 0.074837 0.072324 0.069399 0.066107 0.062701 0.059096 0.055131 0.050721 0.045805 0.040363 0.034387 0.027607 0.018020 0.093382 0.069612 0.068362 0.069944 0.071692 0.072667 0.073537 0.07499